<UPF version="2.0.1">
  <PP_INFO>
    Generated using "atomic" code by A. Dal Corso  v.5.1
    Author: ADC
    Generation date:  4Jan2015
    Pseudopotential type: PAW
    Element: Br
    Functional:  SLA  PW   PBX  PBC

    Suggested minimum cutoff for wavefunctions:  49. Ry
    Suggested minimum cutoff for charge density: 196. Ry
    The Pseudo was generated with a Scalar-Relativistic Calculation
    L component and cutoff radius for Local Potential:  2   1.7000
    Pseudopotential contains additional information for GIPAW reconstruction.

    Valence configuration: 
    nl pn  l   occ       Rcut    Rcut US       E pseu
    4S  1  0  2.00      1.200      1.500    -1.479845
    4P  2  1  5.00      1.400      1.700    -0.577675
    Generation configuration:
    4S  1  0  2.00      1.200      1.500    -1.479837
    4S  1  0  0.00      1.200      1.500     6.300000
    4P  2  1  5.00      1.400      1.700    -0.577671
    4P  2  1  0.00      1.400      1.700     6.300000
    4D  3  2 -2.00      1.700      1.700     0.500000

    Pseudization used: troullier-martins
<PP_INPUTFILE>
 &input
   title='Br',
   zed=35.,
   rel=1,
   config='[Ar] 4s2 4p5 3d10 4d-1',
   iswitch=3,
   dft='PBE'
 /
 &inputp
   lpaw=.true.,
   pseudotype=3,
   file_pseudopw='Br.pbe-n-kjpaw_psl.1.0.0.UPF',
   author='ADC',
   lloc=2,
   which_augfun='PSQ',
   rmatch_augfun_nc=.true.,
   nlcc=.true.,
   new_core_ps=.true.,
   rcore=1.6,
   tm=.true.
 /
5
4S  1  0  2.00  0.00  1.20  1.50  0.0
4S  1  0  0.00  6.30  1.20  1.50  0.0
4P  2  1  5.00  0.00  1.40  1.70  0.0
4P  2  1  0.00  6.30  1.40  1.70  0.0
4D  3  2 -2.00  0.50  1.70  1.70  0.0
</PP_INPUTFILE>
  </PP_INFO>
  <!--                               -->
  <!-- END OF HUMAN READABLE SECTION -->
  <!--                               -->
  <PP_HEADER generated='Generated using "atomic" code by A. Dal Corso  v.5.1'
             author="ADC"
             date=" 4Jan2015"
             comment=""
             element="Br"
             pseudo_type="PAW"
             relativistic="scalar"
             is_ultrasoft="T"
             is_paw="T"
             is_coulomb="F"
             has_so="F"
             has_wfc="T"
             has_gipaw="T"
             paw_as_gipaw="T"
             core_correction="T"
             functional=" SLA  PW   PBX  PBC"
             z_valence="7.000000000000000E+000"
             total_psenergy="-2.042535978895849E+002"
             wfc_cutoff="4.890309925168061E+001"
             rho_cutoff="1.956123970067224E+002"
             l_max="1"
             l_max_rho="2"
             l_local="2"
             mesh_size="1213"
             number_of_wfc="2"
             number_of_proj="4"/>
  <PP_MESH dx="1.250000000000000E-002" mesh="1213" xmin="-7.000000000000000E+000" rmax="1.000000000000000E+002"
zmesh="3.500000000000000E+001">
    <PP_R type="real" size="1213" columns="4">
 2.605377044441475E-005  2.638148653340063E-005  2.671332478333092E-005  2.704933704460726E-005 
 2.738957581982914E-005  2.773409427199740E-005  2.808294623282110E-005  2.843618621112889E-005 
 2.879386940138601E-005  2.915605169231870E-005  2.952278967564677E-005  2.989414065492624E-005 
 3.027016265450315E-005  3.065091442857991E-005  3.103645547039594E-005  3.142684602152338E-005 
 3.182214708128009E-005  3.222242041626092E-005  3.262772856998879E-005  3.303813487268736E-005 
 3.345370345117641E-005  3.387449923889180E-005  3.430058798603145E-005  3.473203626982899E-005 
 3.516891150495660E-005  3.561128195405856E-005  3.605921673841756E-005  3.651278584875498E-005 
 3.697206015616709E-005  3.743711142319886E-005  3.790801231505690E-005  3.838483641096363E-005 
 3.886765821565411E-005  3.935655317101763E-005  3.985159766788568E-005  4.035286905796805E-005 
 4.086044566593927E-005  4.137440680167701E-005  4.189483277265437E-005  4.242180489648820E-005 
 4.295540551364493E-005  4.349571800030662E-005  4.404282678139858E-005  4.459681734378092E-005 
 4.515777624960620E-005  4.572579114984469E-005  4.630095079798019E-005  4.688334506387789E-005 
 4.747306494782668E-005  4.807020259475832E-005  4.867485130864497E-005  4.928710556707835E-005 
 4.990706103603199E-005  5.053481458480916E-005  5.117046430117913E-005  5.181410950670329E-005 
 5.246585077225449E-005  5.312578993373146E-005  5.379403010797078E-005  5.447067570885933E-005 
 5.515583246364884E-005  5.584960742947620E-005  5.655210901009134E-005  5.726344697279540E-005 
 5.798373246559240E-005  5.871307803455597E-005  5.945159764141513E-005  6.019940668136097E-005 
 6.095662200107738E-005  6.172336191699869E-005  6.249974623379672E-005  6.328589626310048E-005 
 6.408193484245152E-005  6.488798635449734E-005  6.570417674642675E-005  6.653063354964897E-005 
 6.736748589972094E-005  6.821486455652496E-005  6.907290192470011E-005  6.994173207433094E-005 
 7.082149076189596E-005  7.171231545147995E-005  7.261434533625309E-005  7.352772136022000E-005 
 7.445258624024280E-005  7.538908448834062E-005  7.633736243427001E-005  7.729756824838933E-005 
 7.826985196481053E-005  7.925436550484254E-005  8.025126270072894E-005  8.126069931968479E-005 
 8.228283308823552E-005  8.331782371686193E-005  8.436583292495562E-005  8.542702446608743E-005 
 8.650156415359472E-005  8.758961988648980E-005  8.869136167569453E-005  8.980696167060516E-005 
 9.093659418599049E-005  9.208043572922932E-005  9.323866502788995E-005  9.441146305765663E-005 
 9.559901307060778E-005  9.680150062384890E-005  9.801911360850670E-005  9.925204227908725E-005 
 1.005004792832037E-004  1.017646196916780E-004  1.030446610290209E-004  1.043408033042955E-004 
 1.056532490423695E-004  1.069822033155594E-004  1.083278737756745E-004  1.096904706864618E-004 
 1.110702069564609E-004  1.124672981722710E-004  1.138819626322369E-004  1.153144213805588E-004 
 1.167648982418305E-004  1.182336198560125E-004  1.197208157138451E-004  1.212267181927069E-004 
 1.227515625929240E-004  1.242955871745362E-004  1.258590331945259E-004  1.274421449445143E-004 
 1.290451697889333E-004  1.306683582036764E-004  1.323119638152356E-004  1.339762434403318E-004 
 1.356614571260422E-004  1.373678681904340E-004  1.390957432637075E-004  1.408453523298586E-004 
 1.426169687688633E-004  1.444108693993947E-004  1.462273345220759E-004  1.480666479632778E-004 
 1.499290971194681E-004  1.518149730021164E-004  1.537245702831663E-004  1.556581873410780E-004 
 1.576161263074506E-004  1.595986931142314E-004  1.616061975415174E-004  1.636389532659596E-004 
 1.656972779097756E-004  1.677814930903786E-004  1.698919244706313E-004  1.720289018097303E-004 
 1.741927590147325E-004  1.763838341927288E-004  1.786024697036732E-004  1.808490122138785E-004 
 1.831238127501824E-004  1.854272267547968E-004  1.877596141408463E-004  1.901213393486050E-004 
 1.925127714024419E-004  1.949342839684808E-004  1.973862554129866E-004  1.998690688614862E-004 
 2.023831122586320E-004  2.049287784288200E-004  2.075064651375683E-004  2.101165751536696E-004 
 2.127595163121241E-004  2.154357015778648E-004  2.181455491102846E-004  2.208894823285734E-004 
 2.236679299778792E-004  2.264813261963001E-004  2.293301105827187E-004  2.322147282654917E-004 
 2.351356299720009E-004  2.380932720990803E-004  2.410881167843296E-004  2.441206319783240E-004 
 2.471912915177324E-004  2.503005751993551E-004  2.534489688550931E-004  2.566369644278607E-004 
 2.598650600484519E-004  2.631337601133754E-004  2.664435753636665E-004  2.697950229646918E-004 
 2.731886265869575E-004  2.766249164879338E-004  2.801044295949094E-004  2.836277095888860E-004 
 2.871953069895310E-004  2.908077792411965E-004  2.944656908000212E-004  2.981696132221287E-004 
 3.019201252529330E-004  3.057178129175694E-004  3.095632696124618E-004  3.134570961980422E-004 
 3.173999010926373E-004  3.213923003675333E-004  3.254349178432393E-004  3.295283851869609E-004 
 3.336733420112983E-004  3.378704359741891E-004  3.421203228801035E-004  3.464236667825171E-004 
 3.507811400876700E-004  3.551934236596309E-004  3.596612069266857E-004  3.641851879890591E-004 
 3.687660737279963E-004  3.734045799162140E-004  3.781014313297408E-004  3.828573618611665E-004 
 3.876731146343124E-004  3.925494421203470E-004  3.974871062553609E-004  4.024868785594207E-004 
 4.075495402571216E-004  4.126758823996537E-004  4.178667059884063E-004  4.231228221001261E-004 
 4.284450520136487E-004  4.338342273382270E-004  4.392911901434695E-004  4.448167930909168E-004 
 4.504118995672714E-004  4.560773838193031E-004  4.618141310904535E-004  4.676230377591551E-004 
 4.735050114788930E-004  4.794609713200278E-004  4.854918479134019E-004  4.915985835957539E-004 
 4.977821325569576E-004  5.040434609891190E-004  5.103835472375443E-004  5.168033819536085E-004 
 5.233039682495479E-004  5.298863218551967E-004  5.365514712766974E-004  5.433004579572073E-004 
 5.501343364396266E-004  5.570541745313713E-004  5.640610534712223E-004  5.711560680982694E-004 
 5.783403270229826E-004  5.856149528004359E-004  5.929810821057069E-004  6.004398659114866E-004 
 6.079924696679193E-004  6.156400734847078E-004  6.233838723155078E-004  6.312250761446413E-004 
 6.391649101761600E-004  6.472046150252849E-004  6.553454469122551E-004  6.635886778586165E-004 
 6.719355958859745E-004  6.803875052172537E-004  6.889457264804822E-004  6.976115969151438E-004 
 7.063864705811256E-004  7.152717185702899E-004  7.242687292207127E-004  7.333789083336125E-004 
 7.426036793930099E-004  7.519444837881518E-004  7.614027810387282E-004  7.709800490229282E-004 
 7.806777842083591E-004  7.904975018858737E-004  8.004407364063377E-004  8.105090414203743E-004 
 8.207039901211267E-004  8.310271754900707E-004  8.414802105459225E-004  8.520647285966774E-004 
 8.627823834948143E-004  8.736348498957170E-004  8.846238235193398E-004  8.957510214151682E-004 
 9.070181822305129E-004  9.184270664821734E-004  9.299794568315266E-004  9.416771583630676E-004 
 9.535219988664594E-004  9.655158291221302E-004  9.776605231904580E-004  9.899579787046007E-004 
 1.002410117167001E-003  1.015018884249628E-003  1.027786250097990E-003  1.040714209638978E-003 
 1.053804782892572E-003  1.067060015287475E-003  1.080481977980717E-003  1.094072768181276E-003 
 1.107834509477772E-003  1.121769352170280E-003  1.135879473606323E-003  1.150167078521081E-003 
 1.164634399381892E-003  1.179283696737073E-003  1.194117259569140E-003  1.209137405652466E-003 
 1.224346481915434E-003  1.239746864807154E-003  1.255340960668783E-003  1.271131206109529E-003 
 1.287120068387366E-003  1.303310045794554E-003  1.319703668048003E-003  1.336303496684542E-003 
 1.353112125461169E-003  1.370132180760328E-003  1.387366322000285E-003  1.404817242050674E-003 
 1.422487667653256E-003  1.440380359847982E-003  1.458498114404412E-003  1.476843762258554E-003 
 1.495420169955212E-003  1.514230240095881E-003  1.533276911792290E-003  1.552563161125643E-003 
 1.572092001611635E-003  1.591866484671326E-003  1.611889700107925E-003  1.632164776589580E-003 
 1.652694882138242E-003  1.673483224624672E-003  1.694533052269679E-003  1.715847654151656E-003 
 1.737430360720513E-003  1.759284544318064E-003  1.781413619704955E-003  1.803821044594240E-003 
 1.826510320191646E-003  1.849484991742644E-003  1.872748649086410E-003  1.896304927216731E-003 
 1.920157506849994E-003  1.944310115000292E-003  1.968766525561788E-003  1.993530559898391E-003 
 2.018606087440845E-003  2.043997026291350E-003  2.069707343835757E-003  2.095741057363489E-003 
 2.122102234695254E-003  2.148794994818640E-003  2.175823508531724E-003  2.203191999094764E-003 
 2.230904742890091E-003  2.258966070090305E-003  2.287380365334872E-003  2.316152068415236E-003 
 2.345285674968538E-003  2.374785737180073E-003  2.404656864494583E-003  2.434903724336481E-003 
 2.465531042839158E-003  2.496543605583441E-003  2.527946258345352E-003  2.559743907853278E-003 
 2.591941522554643E-003  2.624544133392255E-003  2.657556834590387E-003  2.690984784450763E-003 
 2.724833206158561E-003  2.759107388598538E-003  2.793812687181431E-003  2.828954524680753E-003 
 2.864538392080107E-003  2.900569849431174E-003  2.937054526722468E-003  2.973998124759048E-003 
 3.011406416053268E-003  3.049285245726749E-003  3.087640532423695E-003  3.126478269235684E-003 
 3.165804524638112E-003  3.205625443438394E-003  3.245947247736108E-003  3.286776237895212E-003 
 3.328118793528485E-003  3.369981374494358E-003  3.412370521906277E-003  3.455292859154763E-003 
 3.498755092942341E-003  3.542764014331463E-003  3.587326499805636E-003  3.632449512343875E-003 
 3.678140102508692E-003  3.724405409547763E-003  3.771252662509435E-003  3.818689181372299E-003 
 3.866722378188935E-003  3.915359758244071E-003  3.964608921227294E-003  4.014477562420519E-003 
 4.064973473900389E-003  4.116104545755808E-003  4.167878767320783E-003  4.220304228422767E-003 
 4.273389120646717E-003  4.327141738615045E-003  4.381570481283671E-003  4.436683853254372E-003 
 4.492490466103648E-003  4.548999039728294E-003  4.606218403707909E-003  4.664157498684526E-003 
 4.722825377759616E-003  4.782231207908645E-003  4.842384271413432E-003  4.903293967312536E-003 
 4.964969812869862E-003  5.027421445061759E-003  5.090658622082814E-003  5.154691224870596E-003 
 5.219529258649562E-003  5.285182854494410E-003  5.351662270913060E-003  5.418977895449581E-003 
 5.487140246307262E-003  5.556159973992102E-003  5.626047862976974E-003  5.696814833386720E-003 
 5.768471942704442E-003  5.841030387499259E-003  5.914501505175791E-003  5.988896775745653E-003 
 6.064227823621233E-003  6.140506419432019E-003  6.217744481863799E-003  6.295954079520969E-003 
 6.375147432812282E-003  6.455336915860313E-003  6.536535058434929E-003  6.618754547911111E-003 
 6.702008231251363E-003  6.786309117013091E-003  6.871670377381207E-003  6.958105350226308E-003 
 7.045627541188758E-003  7.134250625788961E-003  7.223988451564186E-003  7.314855040232290E-003 
 7.406864589882618E-003  7.500031477194496E-003  7.594370259683619E-003  7.689895677976683E-003 
 7.786622658114649E-003  7.884566313884948E-003  7.983741949183068E-003  8.084165060403797E-003 
 8.185851338862576E-003  8.288816673247297E-003  8.393077152100942E-003  8.498649066335448E-003 
 8.605548911777205E-003  8.713793391744553E-003  8.823399419657714E-003  8.934384121681540E-003 
 9.046764839401525E-003  9.160559132533450E-003  9.275784781667138E-003  9.392459791044692E-003 
 9.510602391373704E-003  9.630231042675840E-003  9.751364437171251E-003  9.874021502199274E-003 
 9.998221403175871E-003  1.012398354658825E-002  1.025132758302719E-002  1.038027341025747E-002 
 1.051084117632693E-002  1.064305128271466E-002  1.077692438751877E-002  1.091248140868426E-002 
 1.104974352727147E-002  1.118873219076569E-002  1.132946911642837E-002  1.147197629469048E-002 
 1.161627599258855E-002  1.176239075724396E-002  1.191034341938596E-002  1.206015709691902E-002 
 1.221185519853505E-002  1.236546142737107E-002  1.252099978471284E-002  1.267849457374514E-002 
 1.283797040334919E-002  1.299945219194782E-002  1.316296517139903E-002  1.332853489093853E-002 
 1.349618722117185E-002  1.366594835811669E-002  1.383784482729608E-002  1.401190348788304E-002 
 1.418815153689742E-002  1.436661651345546E-002  1.454732630307284E-002  1.473030914202184E-002 
 1.491559362174332E-002  1.510320869331421E-002  1.529318367197115E-002  1.548554824169107E-002 
 1.568033245982933E-002  1.587756676181633E-002  1.607728196591303E-002  1.627950927802638E-002 
 1.648428029658534E-002  1.669162701747817E-002  1.690158183905187E-002  1.711417756717445E-002 
 1.732944742036096E-002  1.754742503496394E-002  1.776814447042915E-002  1.799164021461743E-002 
 1.821794718919353E-002  1.844710075508264E-002  1.867913671799564E-002  1.891409133402383E-002 
 1.915200131530399E-002  1.939290383575470E-002  1.963683653688493E-002  1.988383753367549E-002 
 2.013394542053468E-002  2.038719927732865E-002  2.064363867548778E-002  2.090330368418978E-002 
 2.116623487662052E-002  2.143247333631377E-002  2.170206066357054E-002  2.197503898195917E-002 
 2.225145094489729E-002  2.253133974231648E-002  2.281474910741078E-002  2.310172332347008E-002 
 2.339230723079949E-002  2.368654623372574E-002  2.398448630769165E-002  2.428617400643996E-002 
 2.459165646928738E-002  2.490098142849023E-002  2.521419721670274E-002  2.553135277452903E-002 
 2.585249765817028E-002  2.617768204716794E-002  2.650695675224438E-002  2.684037322324218E-002 
 2.717798355716327E-002  2.751984050630920E-002  2.786599748652380E-002  2.821650858553948E-002 
 2.857142857142858E-002  2.893081290116100E-002  2.929471772926941E-002  2.966319991662359E-002 
 3.003631703931499E-002  3.041412739765314E-002  3.079669002527520E-002  3.118406469837006E-002 
 3.157631194501852E-002  3.197349305465088E-002  3.237567008762362E-002  3.278290588491636E-002 
 3.319526407795096E-002  3.361280909853403E-002  3.403560618892453E-002  3.446372141202803E-002 
 3.489722166171915E-002  3.533617467329386E-002  3.578064903405328E-002  3.623071419402057E-002 
 3.668644047679263E-002  3.714789909052833E-002  3.761516213907492E-002  3.808830263323438E-002 
 3.856739450217153E-002  3.905251260496563E-002  3.954373274230719E-002  4.004113166834211E-002 
 4.054478710266451E-002  4.105477774246071E-002  4.157118327480577E-002  4.209408438911474E-002 
 4.262356278975060E-002  4.315970120879066E-002  4.370258341895369E-002  4.425229424668953E-002 
 4.480891958543341E-002  4.537254640902697E-002  4.594326278530810E-002  4.652115788987173E-002 
 4.710632202000368E-002  4.769884660878981E-002  4.829882423940263E-002  4.890634865956758E-002 
 4.952151479621131E-002  5.014441877029427E-002  5.077515791182969E-002  5.141383077509170E-002 
 5.206053715401456E-002  5.271537809778573E-002  5.337845592663495E-002  5.404987424782201E-002 
 5.472973797182563E-002  5.541815332873586E-002  5.611522788485279E-002  5.682107055949408E-002 
 5.753579164201365E-002  5.825950280903475E-002  5.899231714189963E-002  5.973434914433876E-002 
 6.048571476036217E-002  6.124653139237600E-002  6.201691791952695E-002  6.279699471627721E-002 
 6.358688367121339E-002  6.438670820609170E-002  6.519659329512299E-002  6.601666548450015E-002 
 6.684705291217120E-002  6.768788532786116E-002  6.853929411334568E-002  6.940141230297969E-002 
 7.027437460448431E-002  7.115831741999519E-002  7.205337886737569E-002  7.295969880179795E-002 
 7.387741883759563E-002  7.480668237039149E-002  7.574763459950308E-002  7.670042255063061E-002 
 7.766519509882990E-002  7.864210299177445E-002  7.963129887331004E-002  8.063293730730577E-002 
 8.164717480180472E-002  8.267416983347892E-002  8.371408287239150E-002  8.476707640707053E-002 
 8.583331496989814E-002  8.691296516281900E-002  8.800619568337237E-002  8.911317735105125E-002 
 9.023408313399339E-002  9.136908817600792E-002  9.251836982394178E-002  9.368210765539071E-002 
 9.486048350675855E-002  9.605368150166944E-002  9.726188807973773E-002  9.848529202569932E-002 
 9.972408449890979E-002  1.009784590632135E-001  1.022486117171880E-001  1.035347409247698E-001 
 1.048370476462642E-001  1.061557353697459E-001  1.074910101428546E-001  1.088430806049904E-001 
 1.102121580199136E-001  1.115984563087558E-001  1.130021920834451E-001  1.144235846805522E-001 
 1.158628561955622E-001  1.173202315175776E-001  1.187959383644574E-001  1.202902073183989E-001 
 1.218032718619663E-001  1.233353684145728E-001  1.248867363694217E-001  1.264576181309125E-001 
 1.280482591525162E-001  1.296589079751287E-001  1.312898162659054E-001  1.329412388575849E-001 
 1.346134337883070E-001  1.363066623419316E-001  1.380211890888652E-001  1.397572819274002E-001 
 1.415152121255748E-001  1.432952543635589E-001  1.450976867765738E-001  1.469227909983511E-001 
 1.487708522051386E-001  1.506421591602598E-001  1.525370042592337E-001  1.544556835754620E-001 
 1.563984969064915E-001  1.583657478208579E-001  1.603577437055189E-001  1.623747958138842E-001 
 1.644172193144495E-001  1.664853333400422E-001  1.685794610376863E-001  1.706999296190951E-001 
 1.728470704117986E-001  1.750212189109140E-001  1.772227148315677E-001  1.794519021619762E-001 
 1.817091292171953E-001  1.839947486935446E-001  1.863091177237176E-001  1.886525979325837E-001 
 1.910255554936935E-001  1.934283611864937E-001  1.958613904542623E-001  1.983250234627725E-001 
 2.008196451596942E-001  2.033456453347428E-001  2.059034186805849E-001  2.084933648545096E-001 
 2.111158885408758E-001  2.137713995143452E-001  2.164603127039100E-001  2.191830482577267E-001 
 2.219400316087651E-001  2.247316935412827E-001  2.275584702581365E-001  2.304208034489393E-001 
 2.333191403590759E-001  2.362539338595850E-001  2.392256425179219E-001  2.422347306696108E-001 
 2.452816684907971E-001  2.483669320717145E-001  2.514910034910747E-001  2.546543708913926E-001 
 2.578575285552608E-001  2.611009769825808E-001  2.643852229687685E-001  2.677107796839410E-001 
 2.710781667531009E-001  2.744879103373288E-001  2.779405432159968E-001  2.814366048700168E-001 
 2.849766415661351E-001  2.885612064422873E-001  2.921908595940287E-001  2.958661681620484E-001 
 2.995877064207880E-001  3.033560558681717E-001  3.071718053164674E-001  3.110355509842899E-001 
 3.149478965897601E-001  3.189094534448392E-001  3.229208405508454E-001  3.269826846951751E-001 
 3.310956205492399E-001  3.352602907676347E-001  3.394773460885545E-001  3.437474454354725E-001 
 3.480712560200994E-001  3.524494534466360E-001  3.568827218173375E-001  3.613717538394067E-001 
 3.659172509332297E-001  3.705199233419754E-001  3.751804902425721E-001  3.798996798580797E-001 
 3.846782295714771E-001  3.895168860408790E-001  3.944164053162029E-001  3.993775529573040E-001 
 4.044011041535945E-001  4.094878438451696E-001  4.146385668454550E-001  4.198540779653985E-001 
 4.251351921392241E-001  4.304827345517655E-001  4.358975407674047E-001  4.413804568606293E-001 
 4.469323395482337E-001  4.525540563231836E-001  4.582464855901622E-001  4.640105168028241E-001 
 4.698470506027732E-001  4.757569989602901E-001  4.817412853168297E-001  4.878008447293103E-001 
 4.939366240162186E-001  5.001495819055511E-001  5.064406891846186E-001  5.128109288517329E-001 
 5.192612962698019E-001  5.257927993218587E-001  5.324064585685433E-001  5.391033074075683E-001 
 5.458843922351903E-001  5.527507726097091E-001  5.597035214170286E-001  5.667437250382952E-001 
 5.738724835196478E-001  5.810909107441035E-001  5.884001346056010E-001  5.958012971852404E-001 
 6.032955549297322E-001  6.108840788320958E-001  6.185680546146305E-001  6.263486829141849E-001 
 6.342271794697614E-001  6.422047753124750E-001  6.502827169579067E-001  6.584622666008740E-001 
 6.667447023126492E-001  6.751313182406636E-001  6.836234248107186E-001  6.922223489317426E-001 
 7.009294342031247E-001  7.097460411246528E-001  7.186735473090965E-001  7.277133476974599E-001 
 7.368668547769449E-001  7.461354988016565E-001  7.555207280160801E-001  7.650240088813753E-001 
 7.746468263045116E-001  7.843906838702890E-001  7.942571040762766E-001  8.042476285707044E-001 
 8.143638183933513E-001  8.246072542194581E-001  8.349795366067129E-001  8.454822862453421E-001 
 8.561171442113436E-001  8.668857722229124E-001  8.777898529000838E-001  8.888310900276478E-001 
 9.000112088213701E-001  9.113319561975576E-001  9.227951010460198E-001  9.344024345064621E-001 
 9.461557702483522E-001  9.580569447543129E-001  9.701078176070733E-001  9.823102717800343E-001 
 9.946662139314871E-001  1.007177574702530E+000  1.019846309018740E+000  1.032674396395627E+000 
 1.045663841247943E+000  1.058816673202874E+000  1.072134947417172E+000  1.085620744898280E+000 
 1.099276172829490E+000  1.113103364899199E+000  1.127104481634301E+000  1.141281710737770E+000 
 1.155637267430498E+000  1.170173394797424E+000  1.184892364138022E+000  1.199796475321200E+000 
 1.214888057144652E+000  1.230169467698741E+000  1.245643094734958E+000  1.261311356039007E+000 
 1.277176699808596E+000  1.293241605035965E+000  1.309508581895243E+000  1.325980172134657E+000 
 1.342658949473694E+000  1.359547520005249E+000  1.376648522602824E+000  1.393964629332870E+000 
 1.411498545872292E+000  1.429253011931222E+000  1.447230801681105E+000  1.465434724188164E+000 
 1.483867623852328E+000  1.502532380851671E+000  1.521431911592447E+000  1.540569169164788E+000 
 1.559947143804122E+000  1.579568863358412E+000  1.599437393761262E+000  1.619555839510966E+000 
 1.639927344155607E+000  1.660555090784230E+000  1.681442302524212E+000  1.702592243044885E+000 
 1.724008217067486E+000  1.745693570881525E+000  1.767651692867656E+000  1.789886014027110E+000 
 1.812400008517810E+000  1.835197194197197E+000  1.858281133171915E+000  1.881655432354393E+000 
 1.905323744026435E+000  1.929289766409890E+000  1.953557244244519E+000  1.978129969373104E+000 
 2.003011781333941E+000  2.028206567960769E+000  2.053718265990259E+000  2.079550861677133E+000 
 2.105708391417024E+000  2.132194942377171E+000  2.159014653135048E+000  2.186171714325025E+000 
 2.213670369293169E+000  2.241514914760261E+000  2.269709701493183E+000  2.298259134984723E+000 
 2.327167676141947E+000  2.356439841983229E+000  2.386080206344036E+000  2.416093400591602E+000 
 2.446484114348590E+000  2.477257096225854E+000  2.508417154564424E+000  2.539969158186809E+000 
 2.571918037157769E+000  2.604268783554641E+000  2.637026452247368E+000  2.670196161688333E+000 
 2.703783094712119E+000  2.737792499345342E+000  2.772229689626670E+000  2.807100046437145E+000 
 2.842409018340967E+000  2.878162122436832E+000  2.914364945219994E+000  2.951023143455167E+000 
 2.988142445060407E+000  3.025728650002112E+000  3.063787631201273E+000  3.102325335451134E+000 
 3.141347784346389E+000  3.180861075224067E+000  3.220871382116264E+000  3.261384956714830E+000 
 3.302408129348222E+000  3.343947309970626E+000  3.386008989163524E+000  3.428599739149870E+000 
 3.471726214820999E+000  3.515395154776475E+000  3.559613382377013E+000  3.604387806810633E+000 
 3.649725424172255E+000  3.695633318556828E+000  3.742118663166249E+000  3.789188721430190E+000 
 3.836850848141015E+000  3.885112490602999E+000  3.933981189795964E+000  3.983464581553580E+000 
 4.033570397756486E+000  4.084306467540401E+000  4.135680718519457E+000  4.187701178024891E+000 
 4.240375974359336E+000  4.293713338066885E+000  4.347721603219132E+000  4.402409208717393E+000 
 4.457784699611289E+000  4.513856728433931E+000  4.570634056553905E+000  4.628125555544239E+000 
 4.686340208568624E+000  4.745287111785032E+000  4.804975475767017E+000  4.865414626942890E+000 
 4.926614009052981E+000  4.988583184625266E+000  5.051331836469498E+000  5.114869769190196E+000 
 5.179206910718611E+000  5.244353313864000E+000  5.310319157884404E+000  5.377114750077157E+000 
 5.444750527389433E+000  5.513237058049046E+000  5.582585043215741E+000  5.652805318653302E+000 
 5.723908856422624E+000  5.795906766596144E+000  5.868810298993810E+000  5.942630844940875E+000 
 6.017379939047844E+000  6.093069261012745E+000  6.169710637446123E+000  6.247316043718977E+000 
 6.325897605833919E+000  6.405467602319916E+000  6.486038466150803E+000  6.567622786687973E+000 
 6.650233311647494E+000  6.733882949091960E+000  6.818584769447419E+000  6.904352007545622E+000 
 6.991198064692018E+000  7.079136510759723E+000  7.168181086309845E+000  7.258345704738487E+000 
 7.349644454450713E+000  7.442091601061914E+000  7.535701589626836E+000  7.630489046896632E+000 
 7.726468783604365E+000  7.823655796779159E+000  7.922065272089549E+000  8.021712586216273E+000 
 8.122613309254884E+000  8.224783207148660E+000  8.328238244152004E+000  8.432994585324929E+000 
 8.539068599058874E+000  8.646476859634282E+000  8.755236149810409E+000  8.865363463447611E+000 
 8.976876008162700E+000  9.089791208017658E+000  9.204126706242187E+000  9.319900367990515E+000 
 9.437130283132825E+000  9.555834769081866E+000  9.676032373655072E+000  9.797741877972697E+000 
 9.920982299392421E+000  1.004577289448082E+001  1.017213316202227E+001  1.030008284606565E+001 
 1.042964193900940E+001  1.056083068472540E+001  1.069366958172206E+001  1.082817938634731E+001 
 1.096438111603178E+001  1.110229605257282E+001  1.124194574545989E+001  1.138335201524160E+001 
 1.152653695693530E+001  1.167152294347944E+001  1.181833262922939E+001  1.196698895349726E+001 
 1.211751514413613E+001  1.226993472116955E+001  1.242427150046653E+001  1.258054959746283E+001 
 1.273879343092906E+001  1.289902772678616E+001  1.306127752196884E+001  1.322556816833770E+001 
 1.339192533664049E+001  1.356037502052321E+001  1.373094354059170E+001  1.390365754852422E+001 
 1.407854403123591E+001  1.425563031509549E+001  1.443494407019512E+001  1.461651331467383E+001 
 1.480036641909550E+001  1.498653211088173E+001  1.517503947880060E+001  1.536591797751191E+001 
 1.555919743216941E+001  1.575490804308112E+001  1.595308039042817E+001  1.615374543904301E+001 
 1.635693454324775E+001  1.656267945175333E+001  1.677101231262027E+001  1.698196567828195E+001 
 1.719557251063092E+001  1.741186618616936E+001  1.763088050122411E+001  1.785264967722747E+001 
 1.807720836606440E+001  1.830459165548688E+001  1.853483507459653E+001  1.876797459939599E+001 
 1.900404665841035E+001  1.924308813837913E+001  1.948513639001987E+001  1.973022923386439E+001 
 1.997840496616817E+001  2.022970236489429E+001  2.048416069577257E+001  2.074181971843490E+001 
 2.100271969262781E+001  2.126690138450306E+001  2.153440607298749E+001  2.180527555623290E+001 
 2.207955215814714E+001  2.235727873500731E+001  2.263849868215606E+001  2.292325594078228E+001 
 2.321159500478697E+001  2.350356092773550E+001  2.379919932989737E+001  2.409855640537439E+001 
 2.440167892931864E+001  2.470861426524120E+001  2.501941037241274E+001  2.533411581335738E+001 
 2.565277976144052E+001  2.597545200855237E+001  2.630218297288803E+001  2.663302370682538E+001 
 2.696802590490226E+001  2.730724191189364E+001  2.765072473099078E+001  2.799852803208298E+001 
 2.835070616014361E+001  2.870731414372174E+001  2.906840770354032E+001  2.943404326120271E+001 