<UPF version="2.0.1">
  <PP_INFO>
    Generated using "atomic" code by A. Dal Corso  v.5.1
    Author: ADC
    Generation date:  4Jan2015
    Pseudopotential type: PAW
    Element:  F
    Functional:  SLA  PW   PBX  PBC

    Suggested minimum cutoff for wavefunctions:  49. Ry
    Suggested minimum cutoff for charge density: 316. Ry
    The Pseudo was generated with a Scalar-Relativistic Calculation
    Local Potential by smoothing AE potential with Bessel fncs, cutoff radius:   0.9000
    Pseudopotential contains additional information for GIPAW reconstruction.

    Valence configuration: 
    nl pn  l   occ       Rcut    Rcut US       E pseu
    2S  1  0  2.00      1.000      1.300    -2.197583
    2P  2  1  5.00      0.900      1.400    -0.816700
    Generation configuration:
    2S  1  0  2.00      1.000      1.300    -2.197579
    2S  1  0  0.00      1.000      1.300     0.400000
    2P  2  1  5.00      0.900      1.400    -0.816695
    2P  2  1  0.00      0.900      1.400     0.150000

    Pseudization used: troullier-martins
<PP_INPUTFILE>
 &input
   title='F',
   zed=9.,
   rel=1,
   config='[He] 2s2 2p5',
   iswitch=3,
   dft='PBE'
 /
 &inputp
   lpaw=.true.,
   pseudotype=3,
   file_pseudopw='F.pbe-n-kjpaw_psl.1.0.0.UPF',
   author='ADC',
   lloc=-1,
   rcloc=0.9
   which_augfun='PSQ',
   rmatch_augfun_nc=.true.,
   nlcc=.true.,
   new_core_ps=.true.,
   rcore=0.7,
   tm=.true.
 /
4
2S  1  0  2.00  0.00  1.00  1.30  0.0
2S  1  0  0.00  0.40  1.00  1.30  0.0
2P  2  1  5.00  0.00  0.90  1.40  0.0
2P  2  1  0.00  0.15  0.90  1.40  0.0
</PP_INPUTFILE>
  </PP_INFO>
  <!--                               -->
  <!-- END OF HUMAN READABLE SECTION -->
  <!--                               -->
  <PP_HEADER generated='Generated using "atomic" code by A. Dal Corso  v.5.1'
             author="ADC"
             date=" 4Jan2015"
             comment=""
             element=" F"
             pseudo_type="PAW"
             relativistic="scalar"
             is_ultrasoft="T"
             is_paw="T"
             is_coulomb="F"
             has_so="F"
             has_wfc="T"
             has_gipaw="T"
             paw_as_gipaw="T"
             core_correction="T"
             functional=" SLA  PW   PBX  PBC"
             z_valence="7.000000000000000E+000"
             total_psenergy="-5.907657034985949E+001"
             wfc_cutoff="4.914614040117372E+001"
             rho_cutoff="3.164771016615131E+002"
             l_max="1"
             l_max_rho="2"
             l_local="-1"
             mesh_size="1105"
             number_of_wfc="2"
             number_of_proj="4"/>
  <PP_MESH dx="1.250000000000000E-002" mesh="1105" xmin="-7.000000000000000E+000" rmax="1.000000000000000E+002"
zmesh="9.000000000000000E+000">
    <PP_R type="real" size="1105" columns="4">
 1.013202183949463E-004  1.025946698521136E-004  1.038851519351758E-004  1.051918662845838E-004 
 1.065150170771133E-004  1.078548110577677E-004  1.092114575720821E-004  1.105851685988346E-004 
 1.119761587831678E-004  1.133846454701283E-004  1.148108487386263E-004  1.162549914358243E-004 
 1.177172992119567E-004  1.191980005555885E-004  1.206973268293175E-004  1.222155123059243E-004 
 1.237527942049781E-004  1.253094127299036E-004  1.268856111055120E-004  1.284816356160064E-004 
 1.300977356434638E-004  1.317341637068014E-004  1.333911755012334E-004  1.350690299382239E-004 
 1.367679891859423E-004  1.384883187102277E-004  1.402302873160683E-004  1.419941671896027E-004 
 1.437802339406498E-004  1.455887666457733E-004  1.474200478918879E-004  1.492743638204141E-004 
 1.511520041719882E-004  1.530532623317352E-004  1.549784353751110E-004  1.569278241143202E-004 
 1.589017331453194E-004  1.609004708954106E-004  1.629243496714337E-004  1.649736857085652E-004 
 1.670487992197303E-004  1.691500144456368E-004  1.712776597054389E-004  1.734320674480369E-004 
 1.756135743040241E-004  1.778225211382849E-004  1.800592531032563E-004  1.823241196928584E-004 
 1.846174747971038E-004  1.869396767573935E-004  1.892910884225082E-004  1.916720772053047E-004 
 1.940830151401244E-004  1.965242789409245E-004  1.989962500601411E-004  2.014993147482906E-004 
 2.040338641143230E-004  2.066002941867334E-004  2.091990059754419E-004  2.118304055344530E-004 
 2.144949040253010E-004  2.171929177812963E-004  2.199248683725774E-004  2.226911826719821E-004 
 2.254922929217482E-004  2.283286368010510E-004  2.312006574943921E-004  2.341088037608482E-004 
 2.370535300041898E-004  2.400352963438838E-004  2.430545686869872E-004  2.461118188009463E-004 
 2.492075243873115E-004  2.523421691563785E-004  2.555162429027707E-004  2.587302415819682E-004 
 2.619846673878036E-004  2.652800288309304E-004  2.686168408182782E-004  2.719956247335092E-004 
 2.754169085184843E-004  2.788812267557554E-004  2.823891207520954E-004  2.859411386230778E-004 
 2.895378353787220E-004  2.931797730102135E-004  2.968675205777167E-004  3.006016542992918E-004 
 3.043827576409298E-004  3.082114214077210E-004  3.120882438361681E-004  3.160138306876630E-004 
 3.199887953431381E-004  3.240137588989075E-004  3.280893502637163E-004  3.322162062570067E-004 
 3.363949717084239E-004  3.406262995585714E-004  3.449108509610343E-004  3.492492953856867E-004 
 3.536423107232963E-004  3.580905833914474E-004  3.625948084417942E-004  3.671556896686647E-004 
 3.717739397190302E-004  3.764502802038568E-004  3.811854418108594E-004  3.859801644186726E-004 
 3.908351972124587E-004  3.957512988009700E-004  4.007292373350812E-004  4.057697906278159E-004 
 4.108737462758813E-004  4.160419017827311E-004  4.212750646831787E-004  4.265740526695737E-004 
 4.319396937195700E-004  4.373728262254981E-004  4.428742991253656E-004  4.484449720355065E-004 
 4.540857153848963E-004  4.597974105511597E-004  4.655809499982866E-004  4.714372374160822E-004 
 4.773671878613711E-004  4.833717279009743E-004  4.894517957564896E-004  4.956083414508891E-004 
 5.018423269569629E-004  5.081547263476303E-004  5.145465259481384E-004  5.210187244901790E-004 
 5.275723332679419E-004  5.342083762961323E-004  5.409278904699737E-004  5.477319257272280E-004 
 5.546215452122464E-004  5.615978254420905E-004  5.686618564747395E-004  5.758147420794139E-004 
 5.830575999090427E-004  5.903915616748972E-004  5.978177733234244E-004  6.053373952153033E-004 
 6.129516023067524E-004  6.206615843331221E-004  6.284685459947898E-004  6.363737071453983E-004 
 6.443783029824608E-004  6.524835842403613E-004  6.606908173857882E-004  6.690012848156176E-004 
 6.774162850572931E-004  6.859371329717230E-004  6.945651599587291E-004  7.033017141650830E-004 
 7.121481606951537E-004  7.211058818242097E-004  7.301762772144021E-004  7.393607641334637E-004 
 7.486607776761630E-004  7.580777709885364E-004  7.676132154949481E-004  7.772686011280019E-004 
 7.870454365613465E-004  7.969452494454110E-004  8.069695866460990E-004  8.171200144864929E-004 
 8.273981189915938E-004  8.378055061361410E-004  8.483438020955513E-004  8.590146535000079E-004 
 8.698197276917526E-004  8.807607129856115E-004  8.918393189327948E-004  9.030572765880234E-004 
 9.144163387800033E-004  9.259182803853122E-004  9.375648986057264E-004  9.493580132490377E-004 
 9.612994670134037E-004  9.733911257752697E-004  9.856348788809177E-004  9.980326394416804E-004 
 1.010586344632868E-003  1.023297955996460E-003  1.036169459747592E-003  1.049202867084912E-003 
 1.062400214504835E-003  1.075763564119743E-003  1.089295003980203E-003  1.102996648401224E-003 
 1.116870638292621E-003  1.130919141493542E-003  1.145144353111193E-003  1.159548495863834E-003 
 1.174133820428073E-003  1.188902605790547E-003  1.203857159604018E-003  1.218999818547942E-003 
 1.234332948693589E-003  1.249858945873741E-003  1.265580236057042E-003  1.281499275727070E-003 
 1.297618552266160E-003  1.313940584344069E-003  1.330467922311514E-003  1.347203148598678E-003 
 1.364148878118717E-003  1.381307758676342E-003  1.398682471381555E-003  1.416275731068563E-003 
 1.434090286719986E-003  1.452128921896388E-003  1.470394455171214E-003  1.488889740571203E-003 
 1.507617668022326E-003  1.526581163801349E-003  1.545783190993070E-003  1.565226749953303E-003 
 1.584914878777695E-003  1.604850653776431E-003  1.625037189954914E-003  1.645477641500490E-003 
 1.666175202275300E-003  1.687133106315327E-003  1.708354628335715E-003  1.729843084242454E-003 
 1.751601831650500E-003  1.773634270408401E-003  1.795943843129542E-003  1.818534035730048E-003 
 1.841408377973473E-003  1.864570444022330E-003  1.888023852996563E-003  1.911772269539043E-003 
 1.935819404388168E-003  1.960169014957685E-003  1.984824905923784E-003  2.009790929819589E-003 
 2.035070987637131E-003  2.060669029436876E-003  2.086589054964934E-003  2.112835114278028E-003 
 2.139411308376326E-003  2.166321789844222E-003  2.193570763499198E-003  2.221162487048825E-003 
 2.249101271756043E-003  2.277391483112806E-003  2.306037541522194E-003  2.335043922989115E-003 
 2.364415159819686E-003  2.394155841329419E-003  2.424270614560308E-003  2.454764185006938E-003 
 2.485641317351734E-003  2.516906836209441E-003  2.548565626880992E-003  2.580622636116842E-003 
 2.613082872889901E-003  2.645951409178209E-003  2.679233380757430E-003  2.712933988003337E-003 
 2.747058496704377E-003  2.781612238884461E-003  2.816600613636105E-003  2.852029087964048E-003 
 2.887903197639483E-003  2.924228548065035E-003  2.961010815150609E-003  2.998255746200276E-003 
 3.035969160810286E-003  3.074156951778398E-003  3.112825086024647E-003  3.151979605523678E-003 
 3.191626628248826E-003  3.231772349128053E-003  3.272423041011921E-003  3.313585055653745E-003 
 3.355264824702056E-003  3.397468860705566E-003  3.440203758130766E-003  3.483476194392321E-003 
 3.527292930896439E-003  3.571660814097341E-003  3.616586776567048E-003  3.662077838078596E-003 
 3.708141106702898E-003  3.754783779919395E-003  3.802013145740670E-003  3.849836583851225E-003 
 3.898261566760560E-003  3.947295660970774E-003  3.996946528158852E-003  4.047221926373804E-003 
 4.098129711248890E-003  4.149677837229069E-003  4.201874358813898E-003  4.254727431816073E-003 
 4.308245314635779E-003  4.362436369551091E-003  4.417309064024591E-003  4.472871972026428E-003 
 4.529133775374025E-003  4.586103265088616E-003  4.643789342768880E-003  4.702201021981813E-003 
 4.761347429671132E-003  4.821237807583375E-003  4.881881513711935E-003  4.943288023759280E-003 
 5.005466932617535E-003  5.068427955867712E-003  5.132180931297792E-003  5.196735820439887E-003 
 5.262102710126770E-003  5.328291814067941E-003  5.395313474445553E-003  5.463178163530398E-003 
 5.531896485318216E-003  5.601479177186597E-003  5.671937111572713E-003  5.743281297672155E-003 
 5.815522883159157E-003  5.888673155928425E-003  5.962743545858904E-003  6.037745626599722E-003 
 6.113691117378581E-003  6.190591884832936E-003  6.268459944864153E-003  6.347307464515032E-003 
 6.427146763870943E-003  6.507990317984836E-003  6.589850758826527E-003  6.672740877256441E-003 
 6.756673625024219E-003  6.841662116792471E-003  6.927719632185937E-003  7.014859617866489E-003 
 7.103095689634177E-003  7.192441634554728E-003  7.282911413113818E-003  7.374519161398400E-003 
 7.467279193305532E-003  7.561206002778913E-003  7.656314266073621E-003  7.752618844049296E-003 
 7.850134784492178E-003  7.948877324466362E-003  8.048861892694610E-003  8.150104111969127E-003 
 8.252619801592656E-003  8.356424979850266E-003  8.461535866512262E-003  8.567968885368527E-003 
 8.675740666794796E-003  8.784868050351188E-003  8.895368087413393E-003  9.007258043837030E-003 
 9.120555402655425E-003  9.235277866811395E-003  9.351443361923378E-003  9.469070039086315E-003 
 9.588176277707838E-003  9.708780688380048E-003  9.830902115787479E-003  9.954559641651635E-003 
 1.007977258771250E-002  1.020656051874766E-002  1.033494324562928E-002  1.046494082841963E-002 
 1.059657357950552E-002  1.072986206677209E-002  1.086482711681668E-002  1.100148981820293E-002 
 1.113987152475597E-002  1.127999385889901E-002  1.142187871503182E-002  1.156554826295185E-002 
 1.171102495131827E-002  1.185833151115958E-002  1.200749095942548E-002  1.215852660258322E-002 
 1.231146204025932E-002  1.246632116892709E-002  1.262312818564042E-002  1.278190759181471E-002 
 1.294268419705522E-002  1.310548312303361E-002  1.327032980741330E-002  1.343725000782408E-002 
 1.360626980588688E-002  1.377741561128903E-002  1.395071416591081E-002  1.412619254800396E-002 
 1.430387817642269E-002  1.448379881490797E-002  1.466598257642558E-002  1.485045792755894E-002 
 1.503725369295697E-002  1.522639905983805E-002  1.541792358255059E-002  1.561185718719090E-002 
 1.580823017627929E-002  1.600707323349481E-002  1.620841742846971E-002  1.641229422164410E-002 
 1.661873546918168E-002  1.682777342794740E-002  1.703944076054761E-002  1.725377054043367E-002 
 1.747079625706974E-002  1.769055182116559E-002  1.791307156997520E-002  1.813839027266205E-002 
 1.836654313573184E-002  1.859756580853362E-002  1.883149438883001E-002  1.906836542843764E-002 
 1.930821593893835E-002  1.955108339746240E-002  1.979700575254428E-002  2.004602143005231E-002 
 2.029816933919274E-002  2.055348887858937E-002  2.081201994243968E-002  2.107380292674837E-002 
 2.133887873563935E-002  2.160728878774706E-002  2.187907502268823E-002  2.215427990761502E-002 
 2.243294644385061E-002  2.271511817360823E-002  2.300083918679474E-002  2.329015412789976E-002 
 2.358310820297146E-002  2.387974718668007E-002  2.418011742947033E-002  2.448426586480377E-002 
 2.479224001649221E-002  2.510408800612344E-002  2.541985856058028E-002  2.573960101965432E-002 
 2.606336534375530E-002  2.639120212171758E-002  2.672316257870469E-002  2.705929858421342E-002 
 2.739966266017850E-002  2.774430798917929E-002  2.809328842274961E-002  2.844665848979224E-002 
 2.880447340509907E-002  2.916678907797859E-002  2.953366212099185E-002  2.990514985879821E-002 
 3.028131033711252E-002  3.066220233177480E-002  3.104788535793416E-002  3.143841967934810E-002 
 3.183386631779891E-002  3.223428706262838E-002  3.263974448039255E-002  3.305030192463785E-002 
 3.346602354580024E-002  3.388697430122881E-002  3.431321996533555E-002  3.474482713987265E-002 
 3.518186326433926E-002  3.562439662651897E-002  3.607249637314998E-002  3.652623252072936E-002 
 3.698567596645329E-002  3.745089849929493E-002  3.792197281122153E-002  3.839897250855273E-002 
 3.888197212346172E-002  3.937104712562098E-002  3.986627393399464E-002  4.036772992877904E-002 
 4.087549346349360E-002  4.138964387722368E-002  4.191026150701745E-002  4.243742770043878E-002 
 4.297122482827793E-002  4.351173629742212E-002  4.405904656388811E-002  4.461324114601853E-002 
 4.517440663784436E-002  4.574263072261540E-002  4.631800218650095E-002  4.690061093246285E-002 
 4.749054799430298E-002  4.808790555088749E-002  4.869277694054994E-002  4.930525667567556E-002 
 4.992544045746908E-002  5.055342519090819E-002  5.118930899988511E-002  5.183319124253873E-002 
 5.248517252677943E-002  5.314535472600936E-002  5.381384099504029E-002  5.449073578621181E-002 
 5.517614486571219E-002  5.587017533010457E-002  5.657293562306105E-002  5.728453555230714E-002 
 5.800508630677957E-002  5.873470047399972E-002  5.947349205766560E-002  6.022157649546526E-002 
 6.097907067711407E-002  6.174609296261906E-002  6.252276320077288E-002  6.330920274788036E-002 
 6.410553448672077E-002  6.491188284574845E-002  6.572837381853502E-002  6.655513498345618E-002 
 6.739229552362597E-002  6.823998624708200E-002  6.909833960722449E-002  6.996748972351224E-002 
 7.084757240241929E-002  7.173872515865470E-002  7.264108723664972E-002  7.355479963231491E-002 
 7.448000511507107E-002  7.541684825015718E-002  7.636547542121916E-002  7.732603485318247E-002 
 7.829867663541262E-002  7.928355274516698E-002  8.028081707134138E-002  8.129062543851578E-002 
 8.231313563130202E-002  8.334850741899801E-002  8.439690258055209E-002  8.545848492984121E-002 
 8.653342034126725E-002  8.762187677567521E-002  8.872402430659748E-002  8.984003514682809E-002 
 9.097008367533135E-002  9.211434646448896E-002  9.327300230768974E-002  9.444623224726650E-002 
 9.563421960278423E-002  9.683714999968424E-002  9.805521139828842E-002  9.928859412316844E-002 
 1.005374908928844E-001  1.018020968500976E-001  1.030826095920615E-001  1.043792292014974E-001 
 1.056921582778571E-001  1.070216019689802E-001  1.083677680031481E-001  1.097308667215424E-001 
 1.111111111111112E-001  1.125087168378483E-001  1.139239022804922E-001  1.153568885646473E-001 
 1.168078995973361E-001  1.182771621019844E-001  1.197649056538480E-001  1.212713627158836E-001 
 1.227967686750720E-001  1.243413618791979E-001  1.259053836740919E-001  1.274890784413414E-001 
 1.290926936364759E-001  1.307164798276323E-001  1.323606907347065E-001  1.340255832689979E-001 
 1.357114175733523E-001  1.374184570628095E-001  1.391469684657628E-001  1.408972218656356E-001 
 1.426694907430824E-001  1.444640520187213E-001  1.462811860964025E-001  1.481211769070226E-001 
 1.499843119528893E-001  1.518708823526441E-001  1.537811828867502E-001  1.557155120435526E-001 
 1.576741720659175E-001  1.596574689984583E-001  1.616657127353558E-001  1.636992170687795E-001 
 1.657582997379190E-001  1.678432824786303E-001  1.699544910737088E-001  1.720922554037926E-001 
 1.742569094989077E-001  1.764487915906604E-001  1.786682441650871E-001  1.809156140161678E-001 
 1.831912523000143E-001  1.854955145897382E-001  1.878287609310102E-001  1.901913558983183E-001 
 1.925836686519329E-001  1.950060729955888E-001  1.974589474348932E-001  1.999426752364677E-001 
 2.024576444878344E-001  2.050042481580556E-001  2.075828841591359E-001  2.101939554081967E-001 
 2.128378698904330E-001  2.155150407228617E-001  2.182258862188720E-001  2.209708299535881E-001 
 2.237503008300531E-001  2.265647331462463E-001  2.294145666629430E-001  2.323002466724285E-001 
 2.352222240680751E-001  2.381809554147956E-001  2.411769030203826E-001  2.442105350077447E-001 
 2.472823253880521E-001  2.503927541348011E-001  2.535423072588116E-001  2.567314768841673E-001 
 2.599607613251103E-001  2.632306651639045E-001  2.665416993296776E-001  2.698943811782544E-001 
 2.732892345729945E-001  2.767267899666480E-001  2.802075844842388E-001  2.837321620069920E-001 
 2.873010732573164E-001  2.909148758848558E-001  2.945741345536231E-001  2.982794210302301E-001 
 3.020313142732274E-001  3.058304005235672E-001  3.096772733962057E-001  3.135725339728557E-001 
 3.175167908959072E-001  3.215106604635291E-001  3.255547667259669E-001  3.296497415830520E-001 
 3.337962248829372E-001  3.379948645220739E-001  3.422463165464481E-001  3.465512452540882E-001 
 3.509103232988632E-001  3.553242317955864E-001  3.597936604264402E-001  3.643193075487417E-001 
 3.689018803040610E-001  3.735420947287145E-001  3.782406758656467E-001  3.829983578777196E-001 
 3.878158841624270E-001  3.926940074680523E-001  3.976334900112867E-001  4.026351035963271E-001 
 4.076996297354718E-001  4.128278597712340E-001  4.180205949999902E-001  4.232786467971847E-001 
 4.286028367441085E-001  4.339939967562726E-001  4.394529692133977E-001  4.449806070910363E-001 
 4.505777740938529E-001  4.562453447905794E-001  4.619842047506678E-001  4.677952506826625E-001 
 4.736793905743133E-001  4.796375438344496E-001  4.856706414366400E-001  4.917796260646596E-001 
 4.979654522597852E-001  5.042290865699450E-001  5.105715077007434E-001  5.169937066683858E-001 
 5.234966869545271E-001  5.300814646630673E-001  5.367490686789201E-001  5.435005408287785E-001 
 5.503369360439020E-001  5.572593225249514E-001  5.642687819088982E-001  5.713664094380320E-001 
 5.785533141310946E-001  5.858306189565661E-001  5.931994610081310E-001  6.006609916823522E-001 
 6.082163768585780E-001  6.158667970811140E-001  6.236134477436844E-001  6.314575392762163E-001 
 6.394002973339704E-001  6.474429629890529E-001  6.555867929243355E-001  6.638330596298141E-001 
 6.721830516014388E-001  6.806380735424432E-001  6.891994465672076E-001  6.978685084076852E-001 
 7.066466136224262E-001  7.155351338082291E-001  7.245354578144573E-001  7.336489919600477E-001 
 7.428771602532526E-001  7.522214046141422E-001  7.616831850999091E-001  7.712639801330042E-001 
 7.809652867321440E-001  7.907886207462220E-001  8.007355170911635E-001  8.108075299897595E-001 
 8.210062332145170E-001  8.313332203335648E-001  8.417901049596499E-001  8.523785210022704E-001 
 8.631001229229753E-001  8.739565859938773E-001  8.849496065594197E-001  8.960809023014306E-001 
 9.073522125075173E-001  9.187652983428305E-001  9.303219431252521E-001  9.420239526040420E-001 
 9.538731552419885E-001  9.658714025011120E-001  9.780205691319570E-001  9.903225534665268E-001 
 1.002779277714903E+000  1.015392688265592E+000  1.028164755989655E+000  1.041097476548660E+000 
 1.054192870706503E+000  1.067452984645167E+000  1.080879890284432E+000  1.094475685605621E+000 
 1.108242494979414E+000  1.122182469497784E+000  1.136297787310112E+000  1.150590653963522E+000 
 1.165063302747509E+000  1.179717995042890E+000  1.194557020675151E+000  1.209582698272238E+000 
 1.224797375626845E+000  1.240203430063264E+000  1.255803268808843E+000  1.271599329370125E+000 
 1.287594079913711E+000  1.303790019651913E+000  1.320189679233267E+000  1.336795621137949E+000 
 1.353610440078164E+000  1.370636763403585E+000  1.387877251511868E+000  1.405334598264359E+000 
 1.423011531407005E+000  1.440910812996571E+000  1.459035239832225E+000  1.477387643892532E+000 
 1.495970892777966E+000  1.514787890158974E+000  1.533841576229678E+000  1.553134928167293E+000 
 1.572670960597312E+000  1.592452726064548E+000  1.612483315510103E+000  1.632765858754328E+000 
 1.653303524985872E+000  1.674099523256866E+000  1.695157102984352E+000  1.716479554458003E+000 
 1.738070209354242E+000  1.759932441256825E+000  1.782069666183964E+000  1.804485343122094E+000 
 1.827182974566340E+000  1.850166107067795E+000  1.873438331787671E+000  1.897003285058429E+000 
 1.920864648951961E+000  1.945026151854921E+000  1.969491569051294E+000  1.994264723312294E+000 
 2.019349485493674E+000  2.044749775140561E+000  2.070469561099891E+000  2.096512862140544E+000 
 2.122883747581295E+000  2.149586337926646E+000  2.176624805510667E+000  2.204003375148926E+000 
 2.231726324798631E+000  2.259797986227069E+000  2.288222745688449E+000  2.317005044609269E+000 
 2.346149380282292E+000  2.375660306569261E+000  2.405542434612452E+000  2.435800433555164E+000 
 2.466439031271294E+000  2.497463015104069E+000  2.528877232614082E+000  2.560686592336732E+000 
 2.592896064549191E+000  2.625510682047025E+000  2.658535540930572E+000  2.691975801401221E+000 
 2.725836688567707E+000  2.760123493262538E+000  2.794841572868708E+000  2.829996352156789E+000 
 2.865593324132564E+000  2.901638050895331E+000  2.938136164506978E+000  2.975093367872015E+000 
 3.012515435628656E+000  3.050408215051124E+000  3.088777626963298E+000  3.127629666663851E+000 
 3.166970404863032E+000  3.206805988631226E+000  3.247142642359439E+000  3.287986668731885E+000 
 3.329344449710780E+000  3.371222447533548E+000  3.413627205722548E+000  3.456565350107519E+000 
 3.500043589860883E+000  3.544068718546057E+000  3.588647615178966E+000  3.633787245302908E+000 
 3.679494662076925E+000  3.725777007377884E+000  3.772641512916396E+000  3.820095501366800E+000 
 3.868146387511339E+000  3.916801679398729E+000  3.966068979517322E+000  4.015955985982995E+000 
 4.066470493742001E+000  4.117620395788955E+000  4.169413684400113E+000  4.221858452382198E+000 
 4.274962894336905E+000  4.328735307941332E+000  4.383184095244506E+000  4.438317763980217E+000 
 4.494144928896379E+000  4.550674313101092E+000  4.607914749425642E+000  4.665875181804668E+000 
 4.724564666673645E+000  4.783992374383994E+000  4.844167590635948E+000  4.905099717929472E+000 
 4.966798277033429E+000  5.029272908473199E+000  5.092533374037055E+000  5.156589558301444E+000 
 5.221451470175478E+000  5.287129244464856E+000  5.353633143455427E+000  5.420973558516716E+000 
 5.489161011725580E+000  5.558206157510308E+000  5.628119784315407E+000  5.698912816287303E+000 
 5.770596314981274E+000  5.843181481089831E+000  5.916679656192850E+000  5.991102324529730E+000 
 6.066461114793809E+000  6.142767801949382E+000  6.220034309071573E+000  6.298272709209313E+000 
 6.377495227271805E+000  6.457714241938671E+000  6.538942287594157E+000  6.621192056285666E+000 
 6.704476399706889E+000  6.788808331205931E+000  6.874201027818660E+000  6.960667832327651E+000 
 7.048222255347039E+000  7.136877977433544E+000  7.226648851224112E+000  7.317548903600417E+000 
 7.409592337880579E+000  7.502793536038461E+000  7.597167060950905E+000  7.692727658673182E+000 
 7.789490260743102E+000  7.887469986514104E+000  7.986682145517674E+000  8.087142239855519E+000 
 8.188865966621760E+000  8.291869220355665E+000  8.396168095525187E+000  8.501778889041766E+000 
 8.608718102806767E+000  8.717002446289905E+000  8.826648839140155E+000  8.937674413829479E+000 
 9.050096518329793E+000  9.163932718823670E+000  9.279200802449031E+000  9.395918780078453E+000 
 9.514104889133407E+000  9.633777596433879E+000  9.754955601083871E+000  9.877657837393148E+000 
 1.000190347783577E+001  1.012771193604583E+001  1.025510286985088E+001  1.038409618434352E+001 
 1.051471203499157E+001  1.064697083078744E+001  1.078089323743705E+001  1.091650018058890E+001 
 1.105381284910376E+001  1.119285269836546E+001  1.133364145363331E+001  1.147620111343676E+001 
 1.162055395301269E+001  1.176672252778599E+001  1.191472967689384E+001  1.206459852675441E+001 
 1.221635249468040E+001  1.237001529253804E+001  1.252561093045214E+001  1.268316372055767E+001 
 1.284269828079864E+001  1.300423953877466E+001  1.316781273563593E+001  1.333344343002727E+001 
 1.350115750208166E+001  1.367098115746407E+001  1.384294093146616E+001  1.401706369315246E+001 
 1.419337664955877E+001  1.437190734994322E+001  1.455268369009097E+001  1.473573391667296E+001 
 1.492108663165950E+001  1.510877079678944E+001  1.529881573809541E+001  1.549125115048614E+001 
 1.568610710238633E+001  1.588341404043489E+001  1.608320279424233E+001  1.628550458120791E+001 
 1.649035101139741E+001  1.669777409248233E+001  1.690780623474107E+001  1.712048025612320E+001 
 1.733582938737723E+001  1.755388727724307E+001  1.777468799770963E+001  1.799826604933871E+001 
 1.822465636665576E+001  1.845389432360846E+001  1.868601573909395E+001  1.892105688255568E+001 
 1.915905447965048E+001  1.940004571798714E+001  1.964406825293694E+001  1.989116021351743E+001 
 2.014136020835015E+001  2.039470733169333E+001  2.065124116955046E+001  2.091100180585561E+001 
 2.117402982873669E+001  2.144036633685740E+001  2.171005294583900E+001  2.198313179476284E+001 
 2.225964555275465E+001  2.253963742565167E+001  2.282315116275371E+001  2.311023106365896E+001 
 2.340092198518606E+001  2.369526934838289E+001  2.399331914562381E+001  2.429511794779602E+001 
 2.460071291157635E+001  2.491015178679968E+001  2.522348292391979E+001  2.554075528156434E+001 
 2.586201843418470E+001  2.618732257980207E+001  2.651671854785107E+001  2.685025780712186E+001 
 2.718799247380229E+001  2.752997531962115E+001  2.787625978009384E+001  2.822689996287189E+001 
 2.858195065619722E+001  2.894146733746300E+001  2.930550618188214E+001  2.967412407126468E+001 
 3.004737860290586E+001  3.042532809858562E+001  3.080803161368158E+001  3.119554894639661E+001 
 3.158794064710233E+001  3.198526802780034E+001  3.238759317170224E+001  3.279497894293028E+001 
 3.320748899634006E+001  3.362518778746665E+001  3.404814058259603E+001  3.447641346896293E+001 
 3.491007336507717E+001  3.534918803117979E+001  3.579382607983072E+001  3.624405698662978E+001 
 3.669995110107210E+001  3.716157965754059E+001  3.762901478643639E+001  3.810232952544938E+001 
 3.858159783097053E+001  3.906689458964765E+001  3.955829563008660E+001  4.005587773469975E+001 
 4.055971865170321E+001  4.106989710726543E+001  4.158649281780802E+001  4.210958650246177E+001 
 4.263925989567914E+001  4.317559576000542E+001  4.371867789901068E+001  4.426859117038399E+001 
 4.482542149919284E+001  4.538925589130895E+001  4.596018244700320E+001  4.653829037471155E+001 
 4.712367000497384E+001  4.771641280454826E+001  4.831661139070318E+001  4.892435954568877E+001 
 4.953975223139079E+001  5.016288560416839E+001  5.079385702987882E+001  5.143276509909106E+001 
 5.207970964249078E+001  5.273479174647916E+001  5.339811376896770E+001  5.406977935537196E+001 
 5.474989345480631E+001  5.543856233648245E+001  5.613589360631434E+001  5.684199622373158E+001 
 5.755698051870471E+001  5.828095820898449E+001  5.901404241755790E+001  5.975634769032411E+001 
 6.050799001399216E+001  6.126908683420436E+001  6.203975707388733E+001  6.282012115183391E+001 
 6.361030100151905E+001  6.441042009015183E+001  6.522060343796771E+001  6.604097763776313E+001 
 6.687167087467580E+001  6.771281294621419E+001  6.856453528253819E+001  6.942697096699573E+001 
 7.030025475691713E+001  7.118452310467120E+001  7.207991417898648E+001  7.298656788653997E+001 
 7.390462589381804E+001  7.483423164925216E+001  7.577553040563284E+001  7.672866924280598E+001 
 7.769379709065397E+001  7.867106475236668E+001  7.966062492800444E+001  8.066263223835793E+001 
 8.167724324910813E+001  8.270461649528967E+001  8.374491250606245E+001  8.479829382979463E+001 
 8.586492505946110E+001  8.694497285836175E+001  8.803860598616245E+001  8.914599532526442E+001 
 9.026731390750489E+001  9.140273694119361E+001  9.255244183848977E+001  9.371660824312261E+001 
 9.489541805846137E+001  9.608905547593798E+001  9.729770700382733E+001  9.852156149638982E+001 
 9.976081018337982E+001
    </PP_R>
    <PP_RAB type="real" size="1105" columns="4">
 1.266502729936828E-006  1.282433373151420E-006  1.298564399189698E-006  1.314898328557297E-006 
 1.331437713463917E-006  1.348185138222096E-006  1.365143219651026E-006  1.382314607485432E-006 
 1.399701984789598E-006  1.417308068376604E-006  1.435135609232829E-006  1.453187392947804E-006 