<UPF version="2.0.1">
  <PP_INFO>
    Generated using "atomic" code by A. Dal Corso  v.5.1
    Author: ADC
    Generation date:  3Oct2014
    Pseudopotential type: PAW
    Element: Pb
    Functional:  SLA  PW   PBX  PBC

    Suggested minimum cutoff for wavefunctions:  46. Ry
    Suggested minimum cutoff for charge density: 211. Ry
    The Pseudo was generated with a Scalar-Relativistic Calculation
    Local Potential by smoothing AE potential with Bessel fncs, cutoff radius:   2.1000
    Pseudopotential contains additional information for GIPAW reconstruction.

    Valence configuration: 
    nl pn  l   occ       Rcut    Rcut US       E pseu
    6S  1  0  2.00      1.700      2.000    -0.884916
    6P  2  1  2.00      2.200      2.400    -0.257056
    5D  3  2 10.00      1.400      1.600    -1.556489
    Generation configuration:
    6S  1  0  2.00      1.700      2.000    -0.884912
    6S  1  0  0.00      1.700      2.000     4.000000
    6P  2  1  2.00      2.200      2.400    -0.257055
    6P  2  1  0.00      2.200      2.400     6.000000
    5D  3  2 10.00      1.400      1.600    -1.556485
    5D  3  2  0.00      1.400      1.600     6.700000

    Pseudization used: troullier-martins
<PP_INPUTFILE>
 &input
   title='Pb',
   zed=82.,
   rel=1,
   config='[Xe] 4f14 6s2 6p2 5d10',
   iswitch=3,
   dft='PBE'
 /
 &inputp
   lpaw=.true.,
   pseudotype=3,
   file_pseudopw='Pb.pbe-dn-kjpaw_psl.1.0.0.UPF',
   author='ADC',
   lloc=-1,
   rcloc=2.1,
   which_augfun='PSQ',
   rmatch_augfun_nc=.true.,
   nlcc=.true.,
   new_core_ps=.true.,
   rcore=1.6,
   tm=.true.
 /
6
6S  1  0  2.00  0.00  1.70  2.00  0.0
6S  1  0  0.00  4.00  1.70  2.00  0.0
6P  2  1  2.00  0.00  2.20  2.40  0.0
6P  2  1  0.00  6.00  2.20  2.40  0.0
5D  3  2 10.00  0.00  1.40  1.60  0.0
5D  3  2  0.00  6.70  1.40  1.60  0.0
</PP_INPUTFILE>
  </PP_INFO>
  <!--                               -->
  <!-- END OF HUMAN READABLE SECTION -->
  <!--                               -->
  <PP_HEADER generated='Generated using "atomic" code by A. Dal Corso  v.5.1'
             author="ADC"
             date=" 3Oct2014"
             comment=""
             element="Pb"
             pseudo_type="PAW"
             relativistic="scalar"
             is_ultrasoft="T"
             is_paw="T"
             is_coulomb="F"
             has_so="F"
             has_wfc="T"
             has_gipaw="T"
             paw_as_gipaw="T"
             core_correction="T"
             functional=" SLA  PW   PBX  PBC"
             z_valence="1.400000000000000E+001"
             total_psenergy="-8.702955910345512E+002"
             wfc_cutoff="4.596857884999159E+001"
             rho_cutoff="2.113621639258365E+002"
             l_max="2"
             l_max_rho="4"
             l_local="-1"
             mesh_size="1281"
             number_of_wfc="3"
             number_of_proj="6"/>
  <PP_MESH dx="1.250000000000000E-002" mesh="1281" xmin="-7.000000000000000E+000" rmax="1.000000000000000E+002"
zmesh="8.200000000000000E+001">
    <PP_R type="real" size="1281" columns="4">
 1.112051177505508E-005  1.126039059352466E-005  1.140202887093393E-005  1.154544873855188E-005 
 1.169067260602463E-005  1.183772316487694E-005  1.198662339205779E-005  1.213739655353063E-005 
 1.229006620790866E-005  1.244465621013603E-005  1.260119071521509E-005  1.275969418198071E-005 
 1.292019137692207E-005  1.308270737805240E-005  1.324726757882753E-005  1.341389769211364E-005 
 1.358262375420492E-005  1.375347212889186E-005  1.392646951158058E-005  1.410164293346412E-005 
 1.427901976574603E-005  1.445862772391723E-005  1.464049487208660E-005  1.482464962736603E-005 
 1.501112076431074E-005  1.519993741941524E-005  1.539112909566603E-005  1.558472566715152E-005 
 1.578075738372985E-005  1.597925487575561E-005  1.618024915886575E-005  1.638377163882594E-005 
 1.658985411643773E-005  1.679852879250752E-005  1.700982827287803E-005  1.722378557352295E-005 
 1.744043412570578E-005  1.765980778120361E-005  1.788194081759638E-005  1.810686794362301E-005 
 1.833462430460454E-005  1.856524548793575E-005  1.879876752864573E-005  1.903522691502844E-005 
 1.927466059434411E-005  1.951710597859225E-005  1.976260095035740E-005  2.001118386872837E-005 
 2.026289357529188E-005  2.051776940020172E-005  2.077585116832407E-005  2.103717920546027E-005 
 2.130179434464780E-005  2.156973793254050E-005  2.184105183586914E-005  2.211577844798311E-005 
 2.239396069547448E-005  2.267564204488538E-005  2.296086650949972E-005  2.324967865622044E-005 
 2.354212361253304E-005  2.383824707355692E-005  2.413809530918533E-005  2.444171517131511E-005 
 2.474915410116749E-005  2.506046013670072E-005  2.537568192011621E-005  2.569486870545895E-005 
 2.601807036631351E-005  2.634533740359701E-005  2.667672095344982E-005  2.701227279522582E-005 
 2.735204535958297E-005  2.769609173667569E-005  2.804446568445044E-005  2.839722163704529E-005 
 2.875441471329552E-005  2.911610072534602E-005  2.948233618737199E-005  2.985317832440955E-005 
 3.022868508129705E-005  3.060891513172925E-005  3.099392788742510E-005  3.138378350741098E-005 
 3.177854290742071E-005  3.217826776941368E-005  3.258302055121281E-005  3.299286449626374E-005 
 3.340786364351669E-005  3.382808283743279E-005  3.425358773811601E-005  3.468444483157278E-005 
 3.512072144010053E-005  3.556248573280693E-005  3.600980673626154E-005  3.646275434528122E-005 
 3.692139933385141E-005  3.738581336618468E-005  3.785606900791840E-005  3.833223973745342E-005 
 3.881439995743496E-005  3.930262500637837E-005  3.979699117044083E-005  4.029757569534124E-005 
 4.080445679843015E-005  4.131771368091112E-005  4.183742654021627E-005  4.236367658253724E-005 
 4.289654603551376E-005  4.343611816108207E-005  4.398247726848452E-005  4.453570872744321E-005 
 4.509589898149917E-005  4.566313556151927E-005  4.623750709937327E-005  4.681910334178249E-005 
 4.740801516434305E-005  4.800433458572541E-005  4.860815478205232E-005  4.921957010145803E-005 
 4.983867607883008E-005  5.046556945073703E-005  5.110034817054365E-005  5.174311142371635E-005 
 5.239395964332122E-005  5.305299452571670E-005  5.372031904644398E-005  5.439603747631709E-005 
 5.508025539771544E-005  5.577307972108138E-005  5.647461870162495E-005  5.718498195623916E-005 
 5.790428048062778E-005  5.863262666664866E-005  5.937013431987516E-005  6.011691867737868E-005 
 6.087309642573435E-005  6.163878571925383E-005  6.241410619844702E-005  6.319917900871615E-005 
 6.399412681928517E-005  6.479907384236678E-005  6.561414585257099E-005  6.643947020655767E-005 
 6.727517586293624E-005  6.812139340241585E-005  6.897825504820863E-005  6.984589468669006E-005 
 7.072444788831886E-005  7.161405192882014E-005  7.251484581063529E-005  7.342697028464096E-005 
 7.435056787214192E-005  7.528578288714034E-005  7.623276145888489E-005  7.719165155470423E-005 
 7.816260300312663E-005  7.914576751729130E-005  8.014129871865389E-005  8.114935216098992E-005 
 8.217008535470081E-005  8.320365779142472E-005  8.425023096895771E-005  8.530996841648801E-005 
 8.638303572014779E-005  8.746960054888657E-005  8.856983268066941E-005  8.968390402900532E-005 
 9.081198866980907E-005  9.195426286860085E-005  9.311090510804832E-005  9.428209611585452E-005 
 9.546801889299723E-005  9.666885874232321E-005  9.788480329750188E-005  9.911604255234403E-005 
 1.003627688904882E-004  1.016251771154611E-004  1.029034644811163E-004  1.041978307224554E-004 
 1.055084780868370E-004  1.068356113655784E-004  1.081794379259544E-004  1.095401677435991E-004 
 1.109180134353148E-004  1.123131902922944E-004  1.137259163137601E-004  1.151564122410270E-004 
 1.166049015919941E-004  1.180716106960693E-004  1.195567687295345E-004  1.210606077513538E-004 
 1.225833627394340E-004  1.241252716273400E-004  1.256865753414725E-004  1.272675178387135E-004 
 1.288683461445446E-004  1.304893103916455E-004  1.321306638589776E-004  1.337926630113595E-004 
 1.354755675395403E-004  1.371796404007764E-004  1.389051478599192E-004  1.406523595310199E-004 
 1.424215484194566E-004  1.442129909645929E-004  1.460269670829710E-004  1.478637602120500E-004 
 1.497236573544933E-004  1.516069491230132E-004  1.535139297857805E-004  1.554448973124033E-004 
 1.574001534204863E-004  1.593800036227743E-004  1.613847572748894E-004  1.634147276236686E-004 
 1.654702318561089E-004  1.675515911489286E-004  1.696591307187516E-004  1.717931798729235E-004 
 1.739540720609665E-004  1.761421449266814E-004  1.783577403609052E-004  1.806012045549319E-004 
 1.828728880546061E-004  1.851731458150969E-004  1.875023372563589E-004  1.898608263192938E-004 
 1.922489815226158E-004  1.946671760204342E-004  1.971157876605594E-004  1.995951990435418E-004 
 2.021057975824543E-004  2.046479755634265E-004  2.072221302069398E-004  2.098286637298949E-004 
 2.124679834084575E-004  2.151405016416971E-004  2.178466360160250E-004  2.205868093704427E-004 
 2.233614498626119E-004  2.261709910357547E-004  2.290158718863953E-004  2.318965369329543E-004 
 2.348134362852065E-004  2.377670257146097E-004  2.407577667255217E-004  2.437861266273101E-004 
 2.468525786073706E-004  2.499576018050641E-004  2.531016813865822E-004  2.562853086207565E-004 
 2.595089809558192E-004  2.627732020971313E-004  2.660784820858875E-004  2.694253373788103E-004 
 2.728142909288488E-004  2.762458722668899E-004  2.797206175844992E-004  2.832390698177021E-004 
 2.868017787318184E-004  2.904093010073644E-004  2.940622003270351E-004  2.977610474637809E-004 
 3.015064203699927E-004  3.052989042678067E-004  3.091390917405481E-004  3.130275828253224E-004 
 3.169649851067725E-004  3.209519138120160E-004  3.249889919067742E-004  3.290768501927132E-004 
 3.332161274060069E-004  3.374074703171412E-004  3.416515338319734E-004  3.459489810940622E-004 
 3.503004835882858E-004  3.547067212457619E-004  3.591683825500889E-004  3.636861646449233E-004 
 3.682607734429085E-004  3.728929237359768E-004  3.775833393070353E-004  3.823327530430596E-004 
 3.871419070496092E-004  3.920115527667813E-004  3.969424510866272E-004  4.019353724720410E-004 
 4.069910970771473E-004  4.121104148692019E-004  4.172941257520248E-004  4.225430396909881E-004 
 4.278579768395737E-004  4.332397676675240E-004  4.386892530906057E-004  4.442072846020028E-004 
 4.497947244053660E-004  4.554524455495320E-004  4.611813320649400E-004  4.669822791017642E-004 
 4.728561930697806E-004  4.788039917799978E-004  4.848266045880648E-004  4.909249725394860E-004 
 4.971000485166613E-004  5.033527973877749E-004  5.096841961575600E-004  5.160952341199550E-004 
 5.225869130126852E-004  5.291602471737851E-004  5.358162637000905E-004  5.425560026077259E-004 
 5.493805169946076E-004  5.562908732049928E-004  5.632881509960991E-004  5.703734437068168E-004 
 5.775478584285479E-004  5.848125161781887E-004  5.921685520732924E-004  5.996171155094339E-004 
 6.071593703398042E-004  6.147964950570656E-004  6.225296829774928E-004  6.303601424274316E-004 
 6.382890969321025E-004  6.463177854067784E-004  6.544474623503675E-004  6.626793980414328E-004 
 6.710148787366735E-004  6.794552068719077E-004  6.880017012655777E-004  6.966556973248206E-004 
 7.054185472541278E-004  7.142916202666284E-004  7.232763027980335E-004  7.323739987232680E-004 
 7.415861295758289E-004  7.509141347699053E-004  7.603594718252857E-004  7.699236165951025E-004 
 7.796080634964341E-004  7.894143257438116E-004  7.993439355856630E-004  8.093984445437268E-004 
 8.195794236554852E-004  8.298884637196369E-004  8.403271755446657E-004  8.508971902005325E-004 
 8.616001592735317E-004  8.724377551243568E-004  8.834116711494085E-004  8.945236220453919E-004 
 9.057753440772428E-004  9.171685953494195E-004  9.287051560806141E-004  9.403868288819114E-004 
 9.522154390384532E-004  9.641928347946425E-004  9.763208876429335E-004  9.886014926162594E-004 
 1.001036568584132E-003  1.013628058552470E-003  1.026377929967200E-003  1.039288175021669E-003 
 1.052360810967933E-003  1.065597880431956E-003  1.079001451732772E-003  1.092573619205667E-003 
 1.106316503529421E-003  1.120232252057670E-003  1.134323039154433E-003  1.148591066533862E-003 
 1.163038563604264E-003  1.177667787816449E-003  1.192481025016464E-003  1.207480589802760E-003 
 1.222668825887851E-003  1.238048106464525E-003  1.253620834576663E-003  1.269389443494716E-003 
 1.285356397095907E-003  1.301524190249222E-003  1.317895349205236E-003  1.334472431990841E-003 
 1.351258028808950E-003  1.368254762443217E-003  1.385465288667851E-003  1.402892296662591E-003 
 1.420538509432890E-003  1.438406684235397E-003  1.456499613008777E-003  1.474820122809960E-003 
 1.493371076255877E-003  1.512155371970747E-003  1.531175945038991E-003  1.550435767463849E-003 
 1.569937848631759E-003  1.589685235782582E-003  1.609681014485734E-003  1.629928309122323E-003 
 1.650430283373326E-003  1.671190140713933E-003  1.692211124914089E-003  1.713496520545343E-003 
 1.735049653494069E-003  1.756873891481138E-003  1.778972644588139E-003  1.801349365790205E-003 
 1.824007551495550E-003  1.846950742091788E-003  1.870182522499128E-003  1.893706522730525E-003 
 1.917526418458874E-003  1.941645931591345E-003  1.966068830850936E-003  1.990798932365347E-003 
 2.015840100263251E-003  2.041196247278080E-003  2.066871335359392E-003  2.092869376291936E-003 
 2.119194432322502E-003  2.145850616794653E-003  2.172842094791445E-003  2.200173083786230E-003 
 2.227847854301643E-003  2.255870730576882E-003  2.284246091243379E-003  2.312978370008967E-003 
 2.342072056350660E-003  2.371531696216141E-003  2.401361892734074E-003  2.431567306933356E-003 
 2.462152658471408E-003  2.493122726371635E-003  2.524482349770154E-003  2.556236428671925E-003 
 2.588389924716380E-003  2.620947861952691E-003  2.653915327624792E-003  2.687297472966267E-003 
 2.721099514005242E-003  2.755326732379402E-003  2.789984476161250E-003  2.825078160693767E-003 
 2.860613269436557E-003  2.896595354822661E-003  2.933030039126125E-003  2.969923015340497E-003 
 3.007280048068372E-003  3.045106974422117E-003  3.083409704935933E-003  3.122194224489392E-003 
 3.161466593242581E-003  3.201232947583016E-003  3.241499501084471E-003  3.282272545477853E-003 
 3.323558451634301E-003  3.365363670560649E-003  3.407694734407407E-003  3.450558257489426E-003 
 3.493960937319392E-003  3.537909555654335E-003  3.582410979555280E-003  3.627472162460252E-003 
 3.673100145270758E-003  3.719302057451943E-003  3.766085118146585E-003  3.813456637303096E-003 
 3.861424016817723E-003  3.909994751691106E-003  3.959176431199388E-003  4.008976740080052E-003 
 4.059403459732679E-003  4.110464469434809E-003  4.162167747573095E-003  4.214521372889934E-003 
 4.267533525745799E-003  4.321212489397425E-003  4.375566651292094E-003  4.430604504378187E-003 
 4.486334648432225E-003  4.542765791402599E-003  4.599906750770208E-003  4.657766454926208E-003 
 4.716353944567090E-003  4.775678374107306E-003  4.835749013109671E-003  4.896575247733741E-003 
 4.958166582202429E-003  5.020532640287056E-003  5.083683166811080E-003  5.147628029172751E-003 
 5.212377218886913E-003  5.277940853146187E-003  5.344329176401822E-003  5.411552561964391E-003 
 5.479621513624656E-003  5.548546667294801E-003  5.618338792670317E-003  5.689008794912787E-003 
 5.760567716353839E-003  5.833026738220539E-003  5.906397182382471E-003  5.980690513120808E-003 
 6.055918338919631E-003  6.132092414279770E-003  6.209224641555481E-003  6.287327072814199E-003 
 6.366411911719709E-003  6.446491515438994E-003  6.527578396573054E-003  6.609685225112041E-003 
 6.692824830414959E-003  6.777010203214287E-003  6.862254497645804E-003  6.948571033303942E-003 
 7.035973297323011E-003  7.124474946484586E-003  7.214089809351405E-003  7.304831888428118E-003 
 7.396715362349190E-003  7.489754588094366E-003  7.583964103231955E-003  7.679358628190368E-003 
 7.775953068558214E-003  7.873762517413320E-003  7.972802257681067E-003  8.073087764522369E-003 
 8.174634707751701E-003  8.277458954285544E-003  8.381576570621616E-003  8.487003825349296E-003 
 8.593757191691630E-003  8.701853350079301E-003  8.811309190756981E-003  8.922141816422464E-003 
 9.034368544899002E-003  9.148006911841245E-003  9.263074673475230E-003  9.379589809372816E-003 
 9.497570525261040E-003  9.617035255866791E-003  9.738002667797285E-003  9.860491662456741E-003 
 9.984521378999783E-003  1.011011119732196E-002  1.023728074108790E-002  1.036604988079754E-002 
 1.049643873689095E-002  1.062846768289217E-002  1.076215734859263E-002  1.089752862327458E-002 
 1.103460265897512E-002  1.117340087379120E-002  1.131394495522626E-002  1.145625686357898E-002 
 1.160035883537456E-002  1.174627338683929E-002  1.189402331741870E-002  1.204363171334002E-002 
 1.219512195121952E-002  1.234851770171506E-002  1.250384293322475E-002  1.266112191563202E-002 
 1.282037922409786E-002  1.298163974290073E-002  1.314492866932478E-002  1.331027151759698E-002 
 1.347769412287376E-002  1.364722264527782E-002  1.381888357398569E-002  1.399270373136674E-002 
 1.416871027717419E-002  1.434693071278891E-002  1.452739288551657E-002  1.471012499293879E-002 
 1.489515558731915E-002  1.508251358006445E-002  1.527222824624225E-002  1.546432922915512E-002 
 1.565884654497246E-002  1.585581058742063E-002  1.605525213253198E-002  1.625720234345370E-002 
 1.646169277531712E-002  1.666875538016825E-002  1.687842251196039E-002  1.709072693160944E-002 
 1.730570181211290E-002  1.752338074373323E-002  1.774379773924636E-002  1.796698723925629E-002 
 1.819298411757648E-002  1.842182368667894E-002  1.865354170321194E-002  1.888817437358700E-002 
 1.912575835963621E-002  1.936633078434078E-002  1.960992923763151E-002  1.985659178226232E-002 
 2.010635695975767E-002  2.035926379643468E-002  2.061535180950112E-002  2.087466101323006E-002 
 2.113723192521215E-002  2.140310557268658E-002  2.167232349895170E-002  2.194492776985621E-002 
 2.222096098037207E-002  2.250046626125001E-002  2.278348728575882E-002  2.307006827650939E-002 
 2.336025401236460E-002  2.365408983543604E-002  2.395162165816888E-002  2.425289597051576E-002 
 2.455795984720095E-002  2.486686095507581E-002  2.517964756056692E-002  2.549636853721776E-002 
 2.581707337332531E-002  2.614181217967268E-002  2.647063569735907E-002  2.680359530572808E-002 
 2.714074303039596E-002  2.748213155138060E-002  2.782781421133298E-002  2.817784502387201E-002 
 2.853227868202429E-002  2.889117056677001E-002  2.925457675569633E-002  2.962255403175963E-002 
 2.999515989215793E-002  3.037245255731502E-002  3.075449097997743E-002  3.114133485442595E-002 
 3.153304462580302E-002  3.192968149955734E-002  3.233130745100742E-002  3.273798523502526E-002 
 3.314977839584203E-002  3.356675127697690E-002  3.398896903129087E-002  3.441649763116710E-002 
 3.484940387881909E-002  3.528775541672881E-002  3.573162073821588E-002  3.618106919813986E-002 
 3.663617102373701E-002  3.709699732559348E-002  3.756362010875650E-002  3.803611228398529E-002 
 3.851454767914352E-002  3.899900105073509E-002  3.948954809558491E-002  3.998626546266677E-002 
 4.048923076507987E-002  4.099852259217598E-002  4.151422052183928E-002  4.203640513292044E-002 
 4.256515801782735E-002  4.310056179527404E-002  4.364270012319001E-002  4.419165771179200E-002 
 4.474752033682008E-002  4.531037485294032E-002  4.588030920731600E-002  4.645741245334954E-002 
 4.704177476459727E-002  4.763348744885920E-002  4.823264296244609E-002  4.883933492462593E-002 
 4.945365813225215E-002  5.007570857457579E-002  5.070558344824402E-002  5.134338117248735E-002 
 5.198920140449780E-002  5.264314505500056E-002  5.330531430402147E-002  5.397581261685288E-002 
 5.465474476022033E-002  5.534221681865250E-002  5.603833621105721E-002  5.674321170750577E-002 
 5.745695344622858E-002  5.817967295082446E-002  5.891148314768635E-002  5.965249838364643E-002 
 6.040283444384290E-002  6.116260856981173E-002  6.193193947780589E-002  6.271094737734498E-002 
 6.349975398999819E-002  6.429848256840359E-002  6.510725791552657E-002  6.592620640416061E-002 
 6.675545599667319E-002  6.759513626500031E-002  6.844537841089220E-002  6.930631528641398E-002 
 7.017808141470407E-002  7.106081301099361E-002  7.195464800389048E-002  7.285972605693082E-002 
 7.377618859040182E-002  7.470417880343889E-002  7.564384169640083E-002  7.659532409352643E-002 
 7.755877466587605E-002  7.853434395456173E-002  7.952218439426970E-002  8.052245033707842E-002 
 8.153529807657650E-002  8.256088587228390E-002  8.359937397438026E-002  8.465092464874437E-002 
 8.571570220230849E-002  8.679387300873169E-002  8.788560553439599E-002  8.899107036472970E-002 
 9.011044023086162E-002  9.124389003661076E-002  9.239159688581523E-002  9.355374011000529E-002 
 9.473050129642412E-002  9.592206431640116E-002  9.712861535408264E-002  9.835034293552286E-002 
 9.958743795814214E-002  1.008400937205546E-001  1.021085059527716E-001  1.033928728467851E-001 
 1.046933950875353E-001  1.060102758842684E-001  1.073437210022880E-001  1.086939387951066E-001 
 1.100611402370016E-001  1.114455389559796E-001  1.128473512671573E-001  1.142667962065602E-001 
 1.157040955653479E-001  1.171594739244696E-001  1.186331586897547E-001  1.201253801274462E-001 
 1.216363714001796E-001  1.231663686034153E-001  1.247156108023293E-001  1.262843400691670E-001 
 1.278728015210680E-001  1.294812433583660E-001  1.311099169033702E-001  1.327590766396359E-001 
 1.344289802517269E-001  1.361198886654802E-001  1.378320660887755E-001  1.395657800528186E-001 
 1.413213014539439E-001  1.430989045959416E-001  1.448988672329196E-001  1.467214706127017E-001 
 1.485669995207741E-001  1.504357423247837E-001  1.523279910195953E-001  1.542440412729175E-001 
 1.561841924715005E-001  1.581487477679163E-001  1.601380141279271E-001  1.621523023784486E-001 
 1.641919272561183E-001  1.662572074564727E-001  1.683484656837451E-001  1.704660287012883E-001 
 1.726102273826318E-001  1.747813967631822E-001  1.769798760925723E-001  1.792060088876701E-001 
 1.814601429862542E-001  1.837426306013633E-001  1.860538283763313E-001  1.883940974405125E-001 
 1.907638034657095E-001  1.931633167233101E-001  1.955930121421424E-001  1.980532693670591E-001 
 2.005444728182569E-001  2.030670117513433E-001  2.056212803181590E-001  2.082076776283641E-001 
 2.108266078118006E-001  2.134784800816377E-001  2.161637087983128E-001  2.188827135342762E-001 
 2.216359191395496E-001  2.244237558081104E-001  2.272466591451100E-001  2.301050702349377E-001 
 2.329994357101422E-001  2.359302078212173E-001  2.388978445072683E-001  2.419028094675650E-001 
 2.449455722339960E-001  2.480266082444344E-001  2.511463989170248E-001  2.543054317254075E-001 
 2.575042002748857E-001  2.607432043795531E-001  2.640229501403911E-001  2.673439500243472E-001 
 2.707067229444103E-001  2.741117943406906E-001  2.775596962625212E-001  2.810509674515926E-001 
 2.845861534261308E-001  2.881658065661369E-001  2.917904861996969E-001  2.954607586903779E-001 
 2.991771975257239E-001  3.029403834068640E-001  3.067509043392485E-001  3.106093557245255E-001 
 3.145163404535741E-001  3.184724690007071E-001  3.224783595190586E-001  3.265346379371724E-001 
 3.306419380568038E-001  3.348009016519526E-001  3.390121785691425E-001  3.432764268289592E-001 
 3.475943127288694E-001  3.519665109473297E-001  3.563937046492067E-001  3.608765855925240E-001 
 3.654158542365491E-001  3.700122198512431E-001  3.746664006280846E-001  3.793791237922887E-001 
 3.841511257164384E-001  3.889831520355428E-001  3.938759577635451E-001  3.988303074112948E-001 
 4.038469751060040E-001  4.089267447122067E-001  4.140704099542386E-001  4.192787745402585E-001 
 4.245526522878298E-001  4.298928672510800E-001  4.353002538494621E-001  4.407756569981335E-001 
 4.463199322399757E-001  4.519339458792755E-001  4.576185751170856E-001  4.633747081882900E-001 
 4.692032445003921E-001  4.751050947740486E-001  4.810811811853726E-001  4.871324375100238E-001 
 4.932598092691148E-001  4.994642538769491E-001  5.057467407906192E-001  5.121082516614879E-001 
 5.185497804885708E-001  5.250723337738530E-001  5.316769306795552E-001  5.383646031873811E-001 
 5.451363962597665E-001  5.519933680031559E-001  5.589365898333353E-001  5.659671466428414E-001 
 5.730861369704794E-001  5.802946731729720E-001  5.875938815987664E-001  5.949849027640297E-001 
 6.024688915308563E-001  6.100470172877167E-001  6.177204641321788E-001  6.254904310559235E-001 
 6.333581321320911E-001  6.413247967049814E-001  6.493916695821420E-001  6.575600112288728E-001 
 6.658310979651743E-001  6.742062221651760E-001  6.826866924590751E-001  6.912738339376076E-001 
 6.999689883591005E-001  7.087735143591224E-001  7.176887876627733E-001  7.267162012996462E-001 
 7.358571658214879E-001  7.451131095226021E-001  7.544854786630236E-001  7.639757376944983E-001 
 7.735853694893091E-001  7.833158755719744E-001  7.931687763538660E-001  8.031456113707774E-001 
 8.132479395234782E-001  8.234773393212945E-001  8.338354091287580E-001  8.443237674153493E-001 
 8.549440530083892E-001  8.656979253491089E-001  8.765870647519399E-001  8.876131726670692E-001 
 8.987779719462908E-001  9.100832071122071E-001  9.215306446308131E-001  9.331220731875108E-001 
 9.448593039665963E-001  9.567441709342580E-001  9.687785311251391E-001  9.809642649325038E-001 
 9.933032764020505E-001  1.005797493529427E+000  1.018448868561479E+000  1.031259378301294E+000 
 1.044231024417081E+000  1.057365833754938E+000  1.070665858655547E+000  1.084133177274858E+000 
 1.097769893908804E+000  1.111578139322103E+000  1.125560071081194E+000  1.139717873891362E+000 
 1.154053759938099E+000  1.168569969232768E+000  1.183268769962603E+000  1.198152458845123E+000 
 1.213223361486998E+000  1.228483832747428E+000  1.243936257106095E+000  1.259583049035742E+000 
 1.275426653379442E+000  1.291469545732609E+000  1.307714232829812E+000  1.324163252936460E+000 
 1.340819176245410E+000  1.357684605278565E+000  1.374762175293527E+000  1.392054554695354E+000 
 1.409564445453509E+000  1.427294583524048E+000  1.445247739277114E+000  1.463426717929823E+000 
 1.481834359984573E+000  1.500473541672886E+000  1.519347175404823E+000  1.538458210224051E+000 
 1.557809632268645E+000  1.577404465237670E+000  1.597245770863643E+000  1.617336649390935E+000 
 1.637680240060189E+000  1.658279721598841E+000  1.679138312717789E+000  1.700259272614333E+000 
 1.721645901481427E+000  1.743301541023342E+000  1.765229574977817E+000  1.787433429644770E+000 
 1.809916574421668E+000  1.832682522345622E+000  1.855734830642312E+000  1.879077101281814E+000 
 1.902712981541404E+000  1.926646164575458E+000  1.950880389992520E+000  1.975419444439614E+000 
 2.000267162193925E+000  2.025427425761904E+000  2.050904166485922E+000  2.076701365158550E+000 
 2.102823052644565E+000  2.129273310510784E+000  2.156056271663811E+000  2.183176120995815E+000 
 2.210637096038431E+000  2.238443487624878E+000  2.266599640560417E+000  2.295109954301226E+000 
 2.323978883641831E+000  2.353210939411178E+000  2.382810689177451E+000  2.412782757961775E+000 
 2.443131828960876E+000  2.473862644278842E+000  2.504980005668090E+000  2.536488775279642E+000 
 2.568393876422860E+000  2.600700294334708E+000  2.633413076958711E+000  2.666537335733710E+000 
 2.700078246392526E+000  2.734041049770696E+000  2.768431052625343E+000  2.803253628464379E+000 
 2.838514218386126E+000  2.874218331929495E+000  2.910371547934874E+000  2.946979515415814E+000 
 2.984047954441715E+000  3.021582657031589E+000  3.059589488059080E+000  3.098074386168866E+000 
 3.137043364704573E+000  3.176502512648378E+000  3.216457995572430E+000  3.256916056602221E+000 
 3.297883017392107E+000  3.339365279113056E+000  3.381369323452856E+000  3.423901713628897E+000 
 3.466969095413670E+000  3.510578198173208E+000  3.554735835918539E+000  3.599448908370396E+000 
 3.644724402037324E+000  3.690569391307315E+000  3.736991039553223E+000  3.783996600252030E+000 
 3.831593418118226E+000  3.879788930251440E+000  3.928590667298494E+000  3.978006254630098E+000 
 4.028043413532304E+000  4.078709962412992E+000  4.130013818023507E+000  4.181962996695663E+000 
 4.234565615594327E+000  4.287829893985717E+000  4.341764154521701E+000  4.396376824540216E+000 
 4.451676437382059E+000  4.507671633724255E+000  4.564371162930148E+000  4.621783884416535E+000 
 4.679918769037954E+000  4.738784900488400E+000  4.798391476720685E+000  4.858747811383609E+000 
 4.919863335277262E+000  4.981747597826592E+000  5.044410268573522E+000  5.107861138687853E+000 
 5.172110122497129E+000  5.237167259035784E+000  5.303042713613764E+000  5.369746779404865E+000 
 5.437289879055087E+000  5.505682566311165E+000  5.574935527669626E+000  5.645059584046580E+000 
 5.716065692468500E+000  5.787964947784299E+000  5.860768584398895E+000  5.934487978028629E+000 
 6.009134647478741E+000  6.084720256443195E+000  6.161256615327184E+000  6.238755683092490E+000 
 6.317229569126127E+000  6.396690535132445E+000  6.477150997049038E+000  6.558623526986792E+000 
 6.641120855194261E+000  6.724655872046820E+000  6.809241630060805E+000  6.894891345932990E+000 
 6.981618402605749E+000  7.069436351358127E+000  7.158358913923285E+000  7.248399984632539E+000 
 7.339573632586369E+000  7.431894103852776E+000  7.525375823693215E+000  7.620033398816603E+000 
 7.715881619661635E+000  7.812935462707816E+000  7.911210092815590E+000  8.010720865595850E+000 
 8.111483329809298E+000  8.213513229795970E+000  8.316826507935311E+000  8.421439307137241E+000 
 8.527367973364461E+000  8.634629058186587E+000  8.743239321366341E+000  8.853215733478310E+000 
 8.964575478560649E+000  9.077335956800086E+000  9.191514787250757E+000  9.307129810587215E+000 
 9.424199091892072E+000  9.542740923478728E+000  9.662773827749538E+000  9.784316560089998E+000 
 9.907388111799317E+000  1.003200771305784E+001  1.015819483593180E+001  1.028596919741590E+001 
 1.041535076251405E+001  1.054635974735905E+001  1.067901662237129E+001  1.081334211545742E+001 
 1.094935721524900E+001  1.108708317438211E+001  1.122654151281806E+001  1.136775402120596E+001 