<UPF version="2.0.1">
  <PP_INFO>
    Generated using "atomic" code by A. Dal Corso  v.5.1
    Author: ADC
    Generation date:  3Oct2014
    Pseudopotential type: PAW
    Element:  S
    Functional:  SLA  PW   PBX  PBC

    Suggested minimum cutoff for wavefunctions:  39. Ry
    Suggested minimum cutoff for charge density: 181. Ry
    The Pseudo was generated with a Scalar-Relativistic Calculation
    Local Potential by smoothing AE potential with Bessel fncs, cutoff radius:   1.8000
    Pseudopotential contains additional information for GIPAW reconstruction.

    Valence configuration: 
    nl pn  l   occ       Rcut    Rcut US       E pseu
    3S  1  0  2.00      1.500      1.700    -1.268328
    3P  2  1  4.00      1.500      1.700    -0.515140
    Generation configuration:
    3S  1  0  2.00      1.500      1.700    -1.268323
    3S  1  0  0.00      1.500      1.700     6.000000
    3P  2  1  4.00      1.500      1.700    -0.515136
    3P  2  1  0.00      1.500      1.700     3.000000
    3D  3  2  0.00      1.500      1.700     0.100000
    3D  3  2  0.00      1.500      1.700     0.300000

    Pseudization used: troullier-martins
<PP_INPUTFILE>
 &input
   title='S',
   zed=16.,
   rel=1,
   config='[Ne] 3s2 3p4 3d-1',
   iswitch=3,
   dft='PBE'
 /
 &inputp
   lpaw=.true.,
   pseudotype=3,
   file_pseudopw='S.pbe-n-kjpaw_psl.1.0.0.UPF',
   author='ADC',
   lloc=-1,
   rcloc=1.8,
   which_augfun='PSQ',
   rmatch_augfun_nc=.true.,
   nlcc=.true.,
   new_core_ps=.true.,
   rcore=1.5,
   tm=.true.
 /
6
3S  1  0  2.00  0.00  1.50  1.70  0.0
3S  1  0  0.00  6.00  1.50  1.70  0.0
3P  2  1  4.00  0.00  1.50  1.70  0.0
3P  2  1  0.00  3.00  1.50  1.70  0.0
3D  3  2  0.00  0.10  1.50  1.70  0.0
3D  3  2  0.00  0.30  1.50  1.70  0.0
</PP_INPUTFILE>
  </PP_INFO>
  <!--                               -->
  <!-- END OF HUMAN READABLE SECTION -->
  <!--                               -->
  <PP_HEADER generated='Generated using "atomic" code by A. Dal Corso  v.5.1'
             author="ADC"
             date=" 3Oct2014"
             comment=""
             element=" S"
             pseudo_type="PAW"
             relativistic="scalar"
             is_ultrasoft="T"
             is_paw="T"
             is_coulomb="F"
             has_so="F"
             has_wfc="T"
             has_gipaw="T"
             paw_as_gipaw="T"
             core_correction="T"
             functional=" SLA  PW   PBX  PBC"
             z_valence="6.000000000000000E+000"
             total_psenergy="-6.599206845140176E+001"
             wfc_cutoff="3.913491374853795E+001"
             rho_cutoff="1.809699693715775E+002"
             l_max="2"
             l_max_rho="4"
             l_local="-1"
             mesh_size="1151"
             number_of_wfc="2"
             number_of_proj="6"/>
  <PP_MESH dx="1.250000000000000E-002" mesh="1151" xmin="-7.000000000000000E+000" rmax="1.000000000000000E+002"
zmesh="1.600000000000000E+001">
    <PP_R type="real" size="1151" columns="4">
 5.699262284715727E-005  5.770950179181389E-005  5.843539796353638E-005  5.917042478507837E-005 
 5.991469710587624E-005  6.066833121999431E-005  6.143144488429617E-005  6.220415733684446E-005 
 6.298658931553190E-005  6.377886307694716E-005  6.458110241547731E-005  6.539343268265116E-005 
 6.621598080672563E-005  6.704887531251855E-005  6.789224634149112E-005  6.874622567208239E-005 
 6.961094674030020E-005  7.048654466057077E-005  7.137315624685047E-005  7.227092003400361E-005 
 7.317997629944840E-005  7.410046708507580E-005  7.503253621944380E-005  7.597632934025092E-005 
 7.693199391709256E-005  7.789967927450309E-005  7.887953661528841E-005  7.987171904415153E-005 
 8.087638159161550E-005  8.189368123824750E-005  8.292377693918697E-005  8.396682964898293E-005 
 8.502300234674337E-005  8.609246006160107E-005  8.717536989849992E-005  8.827190106430510E-005 
 8.938222489424215E-005  9.050651487866847E-005  9.164494669018144E-005  9.279769821106793E-005 
 9.396494956109827E-005  9.514688312567072E-005  9.634368358430939E-005  9.755553793952077E-005 
 9.878263554601357E-005  1.000251681402853E-004  1.012833298705817E-004  1.025573173272329E-004 
 1.038473295733709E-004  1.051535681760338E-004  1.064762372376609E-004  1.078155434279839E-004 
 1.091716960163200E-004  1.105449069042700E-004  1.119353906588294E-004  1.133433645459135E-004 
 1.147690485643067E-004  1.162126654800376E-004  1.176744408611861E-004  1.191546031131298E-004 
 1.206533835142318E-004  1.221710162519792E-004  1.237077384595748E-004  1.252637902529899E-004 
 1.268394147684834E-004  1.284348582005912E-004  1.300503698405956E-004  1.316862021154771E-004 
 1.333426106273568E-004  1.350198541934347E-004  1.367181948864303E-004  1.384378980755323E-004 
 1.401792324678627E-004  1.419424701504629E-004  1.437278866328085E-004  1.455357608898571E-004 
 1.473663754056396E-004  1.492200162173983E-004  1.510969729602815E-004  1.529975389125989E-004 
 1.549220110416474E-004  1.568706900501124E-004  1.588438804230536E-004  1.608418904754812E-004 
 1.628650324005311E-004  1.649136223182451E-004  1.669879803249657E-004  1.690884305433517E-004 
 1.712153011730230E-004  1.733689245418430E-004  1.755496371578445E-004  1.777577797618105E-004 
 1.799936973805152E-004  1.822577393806355E-004  1.845502595233404E-004  1.868716160195663E-004 
 1.892221715859885E-004  1.916022935016964E-004  1.940123536655818E-004  1.964527286544488E-004 
 1.989237997818542E-004  2.014259531576891E-004  2.039595797485093E-004  2.065250754386239E-004 
 2.091228410919545E-004  2.117532826146695E-004  2.144168110186084E-004  2.171138424855034E-004 
 2.198447984320080E-004  2.226101055755456E-004  2.254101960009832E-004  2.282455072281465E-004 
 2.311164822801833E-004  2.340235697527863E-004  2.369672238842880E-004  2.399479046266352E-004 
 2.429660777172581E-004  2.460222147518427E-004  2.491167932580182E-004  2.522502967699724E-004 
 2.554232149040042E-004  2.586360434350273E-004  2.618892843740362E-004  2.651834460465463E-004 
 2.685190431720212E-004  2.718965969442981E-004  2.753166351130254E-004  2.787796920661251E-004 
 2.822863089132916E-004  2.858370335705421E-004  2.894324208458279E-004  2.930730325257257E-004 
 2.967594374632174E-004  3.004922116665744E-004  3.042719383893602E-004  3.080992082215657E-004 
 3.119746191818886E-004  3.158987768111759E-004  3.198722942670410E-004  3.238957924196703E-004 
 3.279698999488365E-004  3.320952534421297E-004  3.362724974944263E-004  3.405022848086081E-004 
 3.447852762975482E-004  3.491221411873812E-004  3.535135571220693E-004  3.579602102692866E-004 
 3.624627954276342E-004  3.670220161352033E-004  3.716385847795059E-004  3.763132227087849E-004 
 3.810466603447274E-004  3.858396372965942E-004  3.906929024767851E-004  3.956072142178592E-004 
 4.005833403910239E-004  4.056220585261179E-004  4.107241559331012E-004  4.158904298250734E-004 
 4.211216874428417E-004  4.264187461810517E-004  4.317824337159083E-004  4.372135881345011E-004 
 4.427130580657574E-004  4.482817028130437E-004  4.539203924884307E-004  4.596300081486523E-004 
 4.654114419327715E-004  4.712655972015793E-004  4.771933886787476E-004  4.831957425937544E-004 
 4.892735968266108E-004  4.954279010544064E-004  5.016596168996971E-004  5.079697180807632E-004 
 5.143591905637519E-004  5.208290327167381E-004  5.273802554657211E-004  5.340138824525837E-004 
 5.407309501950396E-004  5.475325082485893E-004  5.544196193705161E-004  5.613933596859453E-004 
 5.684548188559885E-004  5.756051002480088E-004  5.828453211080204E-004  5.901766127352632E-004 
 5.976001206589696E-004  6.051170048173552E-004  6.127284397388642E-004  6.204356147256882E-004 
 6.282397340395991E-004  6.361420170901173E-004  6.441436986250463E-004  6.522460289234065E-004 
 6.604502739907909E-004  6.687577157571830E-004  6.771696522772601E-004  6.856873979332173E-004 
 6.943122836401441E-004  7.030456570539791E-004  7.118888827820861E-004  7.208433425964770E-004 
 7.299104356497152E-004  7.390915786935386E-004  7.483882063002264E-004  7.578017710867562E-004 
 7.673337439417780E-004  7.769856142554426E-004  7.867588901521249E-004  7.966550987260668E-004 
 8.066757862799920E-004  8.168225185667182E-004  8.270968810338080E-004  8.375004790713018E-004 
 8.480349382625584E-004  8.587019046382590E-004  8.695030449336020E-004  8.804400468487327E-004 
 8.915146193124535E-004  9.027284927492424E-004  9.140834193496389E-004  9.255811733440258E-004 
 9.372235512798564E-004  9.490123723023716E-004  9.609494784388395E-004  9.730367348863806E-004 
 9.852760303034063E-004  9.976692771047255E-004  1.010218411760367E-003  1.022925395098152E-003 
 1.035792212610078E-003  1.048820874762561E-003  1.062013417310567E-003  1.075371901615711E-003 
 1.088898414968345E-003  1.102595070913698E-003  1.116464009582128E-003  1.130507398023519E-003 
 1.144727430545886E-003  1.159126329058243E-003  1.173706343417776E-003  1.188469751781391E-003 
 1.203418860961683E-003  1.218556006787375E-003  1.233883554468299E-003  1.249403898964964E-003 
 1.265119465362774E-003  1.281032709250954E-003  1.297146117106234E-003  1.313462206681377E-003 
 1.329983527398573E-003  1.346712660747798E-003  1.363652220690173E-003  1.380804854066403E-003 
 1.398173241010350E-003  1.415760095367811E-003  1.433568165120558E-003  1.451600232815723E-003 
 1.469859116000569E-003  1.488347667662742E-003  1.507068776676055E-003  1.526025368251877E-003 
 1.545220404396212E-003  1.564656884372509E-003  1.584337845170309E-003  1.604266361979777E-003 
 1.624445548672209E-003  1.644878558286582E-003  1.665568583522218E-003  1.686518857237655E-003 
 1.707732652955786E-003  1.729213285375349E-003  1.750964110888864E-003  1.772988528107069E-003 
 1.795289978389965E-003  1.817871946384530E-003  1.840737960569206E-003  1.863891593805232E-003 
 1.887336463894906E-003  1.911076234146881E-003  1.935114613948556E-003  1.959455359345681E-003 
 1.984102273629247E-003  2.009059207929754E-003  2.034330061818964E-003  2.059918783919210E-003 
 2.085829372520380E-003  2.112065876204660E-003  2.138632394479127E-003  2.165533078416314E-003 
 2.192772131302815E-003  2.220353809296060E-003  2.248282422089354E-003  2.276562333585265E-003 
 2.305197962577501E-003  2.334193783441351E-003  2.363554326832818E-003  2.393284180396541E-003 
 2.423387989482626E-003  2.453870457872489E-003  2.484736348513832E-003  2.515990484264866E-003 
 2.547637748647889E-003  2.579683086612347E-003  2.612131505307495E-003  2.644988074864770E-003 
 2.678257929190012E-003  2.711946266765648E-003  2.746058351462964E-003  2.780599513364595E-003 
 2.815575149597364E-003  2.850990725175588E-003  2.886851773855008E-003  2.923163898997436E-003 
 2.959932774446308E-003  2.997164145413217E-003  3.034863829375623E-003  3.073037716985849E-003 
 3.111691772991497E-003  3.150832037167461E-003  3.190464625259651E-003  3.230595729940587E-003 
 3.271231621777026E-003  3.312378650209739E-003  3.354043244545633E-003  3.396231914962343E-003 
 3.438951253525452E-003  3.482207935218527E-003  3.526008718986086E-003  3.570360448789706E-003 
 3.615270054677405E-003  3.660744553866471E-003  3.706791051839922E-003  3.753416743456748E-003 
 3.800628914076123E-003  3.848434940695765E-003  3.896842293104589E-003  3.945858535049900E-003 
 3.995491325419225E-003  4.045748419437035E-003  4.096637669876523E-003  4.148167028286600E-003 
 4.200344546234362E-003  4.253178376563139E-003  4.306676774666411E-003  4.360848099777729E-003 
 4.415700816276850E-003  4.471243495012329E-003  4.527484814640719E-003  4.584433562982633E-003 
 4.642098638395869E-003  4.700489051165775E-003  4.759613924913147E-003  4.819482498019796E-003 
 4.880104125072073E-003  4.941488278322543E-003  5.003644549170034E-003  5.066582649658330E-003 
 5.130312413993677E-003  5.194843800081410E-003  5.260186891081900E-003  5.326351896986052E-003 
 5.393349156210659E-003  5.461189137213777E-003  5.529882440130457E-003  5.599439798429045E-003 
 5.669872080588282E-003  5.741190291795558E-003  5.813405575666471E-003  5.886529215986043E-003 
 5.960572638471853E-003  6.035547412559301E-003  6.111465253209380E-003  6.188338022739146E-003 
 6.266177732675234E-003  6.344996545630693E-003  6.424806777205400E-003  6.505620897910418E-003 
 6.587451535116524E-003  6.670311475027263E-003  6.754213664676832E-003  6.839171213953058E-003 
 6.925197397645869E-003  7.012305657521487E-003  7.100509604422735E-003  7.189823020395777E-003 
 7.280259860843560E-003  7.371834256706408E-003  7.464560516669980E-003  7.558453129401043E-003 
 7.653526765811372E-003  7.749796281350077E-003  7.847276718324829E-003  7.945983308252228E-003 
 8.045931474237765E-003  8.147136833385731E-003  8.249615199239389E-003  8.353382584251903E-003 
 8.458455202288296E-003  8.564849471158905E-003  8.672582015184706E-003  8.781669667794884E-003 
 8.892129474157101E-003  9.003978693840831E-003  9.117234803514214E-003  9.231915499674804E-003 
 9.348038701414693E-003  9.465622553220412E-003  9.584685427808031E-003  9.705245928993939E-003 
 9.827322894601729E-003  9.950935399405643E-003  1.007610275811105E-002  1.020284452837240E-002 
 1.033118051384916E-002  1.046113076730016E-002  1.059271559371688E-002  1.072595555349617E-002 
 1.086087146565282E-002  1.099748441107260E-002  1.113581573580616E-002  1.127588705440443E-002 
 1.141772025329592E-002  1.156133749420652E-002  1.170676121762232E-002  1.185401414629596E-002 
 1.200311928879714E-002  1.215409994310772E-002  1.230697970026213E-002  1.246178244803345E-002 
 1.261853237466597E-002  1.277725397265463E-002  1.293797204257204E-002  1.310071169694362E-002 
 1.326549836417145E-002  1.343235779250754E-002  1.360131605407706E-002  1.377239954895212E-002 
 1.394563500927687E-002  1.412104950344443E-002  1.429867044032641E-002  1.447852557355555E-002 
 1.466064300586236E-002  1.484505119346614E-002  1.503177895052139E-002  1.522085545362005E-002 
 1.541231024635041E-002  1.560617324391335E-002  1.580247473779666E-002  1.600124540050813E-002 
 1.620251629036823E-002  1.640631885636296E-002  1.661268494305792E-002  1.682164679557399E-002 
 1.703323706462579E-002  1.724748881162333E-002  1.746443551383796E-002  1.768411106963331E-002 
 1.790654980376188E-002  1.813178647272846E-002  1.835985627022081E-002  1.859079483260879E-002 
 1.882463824451264E-002  1.906142304444121E-002  1.930118623050125E-002  1.954396526617837E-002 
 1.978979808619083E-002  2.003872310241692E-002  2.029077920989686E-002  2.054600579291026E-002 
 2.080444273112998E-002  2.106613040585340E-002  2.133110970631211E-002  2.159942203606091E-002 
 2.187110931944722E-002  2.214621400816180E-002  2.242477908787198E-002  2.270684808493821E-002 
 2.299246507321515E-002  2.328167468093832E-002  2.357452209769732E-002  2.387105308149682E-002 
 2.417131396590633E-002  2.447535166729994E-002  2.478321369218706E-002  2.509494814463542E-002 
 2.541060373378745E-002  2.573022978147116E-002  2.605387622990678E-002  2.638159364951035E-002 
 2.671343324679543E-002  2.704944687237421E-002  2.738968702905934E-002  2.773420688006750E-002 
 2.808306025732636E-002  2.843630166988586E-002  2.879398631243537E-002  2.915617007392803E-002 
 2.952290954631343E-002  2.989426203338027E-002  3.027028555971016E-002  3.065103887974414E-002 
 3.103658148696311E-002  3.142697362318382E-002  3.182227628797184E-002  3.222255124817277E-002 
 3.262786104756351E-002  3.303826901662484E-002  3.345383928243690E-002  3.387463677869921E-002 
 3.430072725587666E-002  3.473217729147322E-002  3.516905430043474E-002  3.561142654568270E-002 
 3.605936314878043E-002  3.651293410073350E-002  3.697221027292595E-002  3.743726342819410E-002 
 3.790816623203960E-002  3.838499226398363E-002  3.886781602906377E-002  3.935671296947564E-002 
 3.985175947636085E-002  4.035303290174327E-002  4.086061157061547E-002  4.137457479317714E-002 
 4.189500287722747E-002  4.242197714071341E-002  4.295557992443578E-002  4.349589460491514E-002 
 4.404300560741960E-002  4.459699841915642E-002  4.515795960262953E-002  4.572597680916513E-002 
 4.630113879260739E-002  4.688353542318638E-002  4.747325770156055E-002  4.807039777303568E-002 
 4.867504894196283E-002  4.928730568631731E-002  4.990726367246109E-002  5.053501977009080E-002 
 5.117067206737388E-002  5.181431988627504E-002  5.246606379807548E-002  5.312600563908740E-002 
 5.379424852656613E-002  5.447089687482239E-002  5.515605641153724E-002  5.584983419428225E-002 
 5.655233862724750E-002  5.726367947817988E-002  5.798396789553457E-002  5.871331642584226E-002 
 5.945183903129465E-002  6.019965110755138E-002  6.095686950177082E-002  6.172361253086761E-002 
 6.250000000000003E-002  6.328615322128968E-002  6.408219503277683E-002  6.488824981761410E-002 
 6.570444352350154E-002  6.653090368236624E-002  6.736775943028950E-002  6.821514152768451E-002 
 6.907318237972801E-002  6.994201605704881E-002  7.082177831667667E-002  7.171260662325454E-002 
 7.261464017051772E-002  7.352801990304318E-002  7.445288853827241E-002  7.538939058881132E-002 
 7.633767238501064E-002  7.729788209783033E-002  7.827016976199155E-002  7.925468729941999E-002 
 8.025158854298388E-002  8.126102926053072E-002  8.228316717922639E-002  8.331816201020020E-002 
 8.436617547350023E-002  8.542737132336231E-002  8.650191537379699E-002  8.758997552449836E-002 
 8.869172178707861E-002  8.980732631163281E-002  9.093696341363762E-002  9.208080960118850E-002 
 9.323904360257944E-002  9.441184639422957E-002  9.559940122896121E-002  9.680189366463336E-002 
 9.801951159313559E-002  9.925244526974650E-002  1.005008873428615E-001  1.017650328840944E-001 
 1.030450794187581E-001  1.043412269567277E-001  1.056536780236933E-001  1.069826376928041E-001 
 1.083283136167122E-001  1.096909160600187E-001  1.110706579321274E-001  1.124677548205131E-001 
 1.138824250244069E-001  1.153148895889063E-001  1.167653723395140E-001  1.182340999171106E-001 
 1.197213018133686E-001  1.212272104066097E-001  1.227520609981155E-001  1.242960918488933E-001 
 1.258595442169048E-001  1.274426623947635E-001  1.290456937479054E-001  1.306688887532410E-001 
 1.323125010382922E-001  1.339767874208225E-001  1.356620079489652E-001  1.373684259418564E-001 
 1.390963080307793E-001  1.408459242008256E-001  1.426175478330815E-001  1.444114557473441E-001 
 1.462279282453745E-001  1.480672491546963E-001  1.499297058729437E-001  1.518155894127681E-001 
 1.537251944473094E-001  1.556588193562395E-001  1.576167662723843E-001  1.595993411289330E-001 
 1.616068537072405E-001  1.636396176852314E-001  1.656979506864130E-001  1.677821743295045E-001 
 1.698926142786904E-001  1.720296002945066E-001  1.741934662853657E-001  1.763845503597314E-001 
 1.786031948789478E-001  1.808497465107351E-001  1.831245562833564E-001  1.854279796404668E-001 
 1.877603764966522E-001  1.901221112936666E-001  1.925135530573771E-001  1.949350754554246E-001 
 1.973870568556106E-001  1.998698803850173E-001  2.023839339898726E-001  2.049296104961672E-001 
 2.075073076710343E-001  2.101174282849019E-001  2.127603801744263E-001  2.154365763062173E-001 
 2.181464348413652E-001  2.208903792007794E-001  2.236688381313488E-001  2.264822457729340E-001 
 2.293310417262029E-001  2.322156711213191E-001  2.351365846874945E-001  2.380942388234164E-001 
 2.410890956685610E-001  2.441216231754034E-001  2.471922951825362E-001  2.503015914887079E-001 
 2.534499979277923E-001  2.566380064447009E-001  2.598661151722506E-001  2.631348285089977E-001 
 2.664446571980512E-001  2.697961184068779E-001  2.731897358081100E-001  2.766260396613710E-001 
 2.801055668961292E-001  2.836288611955941E-001  2.871964730816682E-001  2.908089600009671E-001 
 2.944668864119215E-001  2.981708238729753E-001  3.019213511318926E-001  3.057190542161879E-001 
 3.095645265246948E-001  3.134583689202851E-001  3.174011898237552E-001  3.213936053088930E-001 
 3.254362391987407E-001  3.295297231630684E-001  3.336746968170737E-001  3.378718078213231E-001 
 3.421217119829501E-001  3.464250733581266E-001  3.507825643558225E-001  3.551948658428716E-001 
 3.596626672503583E-001  3.641866666813423E-001  3.687675710199387E-001  3.734060960417704E-001 
 3.781029665258093E-001  3.828589163676243E-001  3.876746886940542E-001  3.925510359793229E-001 
 3.974887201626147E-001  4.024885127671289E-001  4.075511950206322E-001  4.126775579775269E-001 
 4.178684026424546E-001  4.231245400954550E-001  4.284467916186989E-001  4.338359888248149E-001 
 4.392929737868310E-001  4.448185991697499E-001  4.504137283637795E-001  4.560792356192397E-001 
 4.618160061831658E-001  4.676249364376302E-001  4.735069340398030E-001  4.794629180637771E-001 
 4.854938191441736E-001  4.916005796215560E-001  4.977841536896735E-001  5.040455075445547E-001 
 5.103856195354785E-001  5.168054803178421E-001  5.233060930079543E-001  5.298884733397736E-001 
 5.365536498236185E-001  5.433026639068755E-001  5.501365701367258E-001  5.570564363249213E-001 
 5.640633437146330E-001  5.711583871493955E-001  5.783426752441811E-001  5.856173305586210E-001 
 5.929834897724081E-001  6.004423038629068E-001  6.079949382849930E-001  6.156425731531618E-001 
 6.233864034259204E-001  6.312276390925036E-001  6.391675053619378E-001  6.472072428544809E-001 
 6.553481077954737E-001  6.635913722116257E-001  6.719383241297725E-001  6.803902677781341E-001 
 6.889485237901003E-001  6.976144294105858E-001  7.063893387049743E-001  7.152746227706954E-001 
 7.242716699514623E-001  7.333818860542008E-001  7.426066945687129E-001  7.519475368900962E-001 
 7.614058725439674E-001  7.709831794145163E-001  7.806809539754258E-001  7.905007115237020E-001 
 8.004439864164401E-001  8.105123323105713E-001  8.207073224056265E-001  8.310305496895493E-001 
 8.414836271876061E-001  8.520681882144228E-001  8.627858866291939E-001  8.736383970941025E-001 
 8.846274153359880E-001  8.957546584113085E-001  9.070218649744328E-001  9.184307955493093E-001 
 9.299832328045528E-001  9.416809818319870E-001  9.535258704286979E-001  9.655197493826266E-001 
 9.776644927617612E-001  9.899619982069641E-001  1.002414187228480E+000  1.015023005506178E+000 
 1.027790423193566E+000  1.040718435225634E+000  1.053809061630565E+000  1.067064347845366E+000 
 1.080486365035478E+000  1.094077210418393E+000  1.107839007591353E+000  1.121773906863166E+000 
 1.135884085590192E+000  1.150171748516566E+000  1.164639128118689E+000  1.179288484954056E+000 
 1.194122108014479E+000  1.209142315083739E+000  1.224351453099750E+000  1.239751898521271E+000 
 1.255346057699230E+000  1.271136367252726E+000  1.287125294449752E+000  1.303315337592714E+000 
 1.319709026408789E+000  1.336308922445210E+000  1.353117619469504E+000  1.370137743874779E+000 
 1.387371955090103E+000  1.404822945996039E+000  1.422493443345421E+000  1.440386208189412E+000 
 1.458504036308920E+000  1.476849758651452E+000  1.495426241773447E+000  1.514236388288187E+000 
 1.533283137319335E+000  1.552569464960178E+000  1.572098384738648E+000  1.591872948088193E+000 
 1.611896244824567E+000  1.632171403628624E+000  1.652701592535175E+000  1.673490019428008E+000 
 1.694539932541119E+000  1.715854620966257E+000  1.737437415166855E+000  1.759291687498416E+000 
 1.781420852735456E+000  1.803828368605065E+000  1.826517736327185E+000  1.849492501161686E+000 
 1.872756252962314E+000  1.896312626737621E+000  1.920165303218933E+000  1.944318009435480E+000 
 1.968774519296747E+000  1.993538654182157E+000  2.018614283538168E+000  2.044005325482886E+000 
 2.069715747418270E+000  2.095749566650059E+000  2.122110851015473E+000  2.148803719518825E+000 
 2.175832342975128E+000  2.203200944661785E+000  2.230913800978493E+000  2.258975242115434E+000 
 2.287389652729876E+000  2.316161472631287E+000  2.345295197475064E+000  2.374795379464986E+000 
 2.404666628064509E+000  2.434913610716999E+000  2.465541053575035E+000  2.496553742238872E+000 
 2.527956522504213E+000  2.559754301119364E+000  2.591952046551923E+000  2.624554789765126E+000 
 2.657567625003925E+000  2.690995710590996E+000  2.724844269732721E+000  2.759118591335328E+000 
 2.793824030831304E+000  2.828966011016174E+000  2.864550022895843E+000  2.900581626544562E+000 
 2.937066451973707E+000  2.974010200011481E+000  3.011418643193677E+000  3.049297626665652E+000 
 3.087653069095639E+000  3.126490963599548E+000  3.165817378677417E+000  3.205638459161608E+000 
 3.245960427176967E+000  3.286789583113030E+000  3.328132306608478E+000  3.369995057547973E+000 
 3.412384377071518E+000  3.455306888596527E+000  3.498769298852760E+000  3.542778398930239E+000 
 3.587341065340390E+000  3.632464261090502E+000  3.678155036771713E+000  3.724420531660687E+000 
 3.771267974835125E+000  3.818704686303336E+000  3.866738078147996E+000  3.915375655684304E+000 
 3.964625018632709E+000  4.014493862306368E+000  4.064989978813563E+000  4.116121258275235E+000 
 4.167895690057826E+000  4.220321364021634E+000  4.273406471784885E+000  4.327159308003665E+000 
 4.381588271667995E+000  4.436701867414183E+000  4.492508706853692E+000  4.549017509918730E+000 
 4.606237106224740E+000  4.664176436450061E+000  4.722844553732918E+000  4.782250625085993E+000 
 4.842403932828806E+000  4.903313876038072E+000  4.964989972016338E+000  5.027441857779082E+000 
 5.090679291560509E+000  5.154712154338315E+000  5.219550451377580E+000  5.285204313794130E+000 
 5.351684000137541E+000  5.418999897994056E+000  5.487162525609678E+000  5.556182533533645E+000 
 5.626070706282619E+000  5.696837964025778E+000  5.768495364291118E+000  5.841054103693229E+000 
 5.914525519682759E+000  5.988921092317935E+000  6.064252446058340E+000  6.140531351581254E+000 
 6.217769727620866E+000  6.295979642830570E+000  6.375173317668736E+000  6.455363126308178E+000 
 6.536561598569639E+000  6.618781421879620E+000  6.702035443252785E+000  6.786336671299356E+000 
 6.871698278257726E+000  6.958133602052647E+000  7.045656148379327E+000  7.134279592813690E+000 
 7.224017782949235E+000  7.314884740560744E+000  7.406894663795208E+000  7.500061929390341E+000 
 7.594401094920936E+000  7.689926901073540E+000  7.786654273949716E+000  7.884598327398261E+000 
 7.983774365376807E+000  8.084197884343061E+000  8.185884575676170E+000  8.288850328128541E+000 
 8.393111230308470E+000  8.498683573194061E+000  8.605583852678670E+000  8.713828772148457E+000 
 8.823435245092313E+000  8.934420397744626E+000  9.046801571761312E+000  9.160596326929449E+000 
 9.275822443911046E+000  9.392497927021312E+000  9.510641007041851E+000  9.630270144069298E+000 
 9.751404030399694E+000  9.874061593449225E+000  9.998261998711667E+000  1.012402465275302E+001 
 1.025136920624387E+001  1.038031555702976E+001  1.051088385324035E+001  1.064309449643757E+001 
 1.077696814480340E+001  1.091252571636777E+001  1.104978839227703E+001  1.118877762010355E+001 
 1.132951511719696E+001  1.147202287407750E+001  1.161632315787213E+001  1.176243851579378E+001 
 1.191039177866439E+001  1.206020606448229E+001  1.221190478203443E+001  1.236551163455410E+001 
 1.252105062342449E+001  1.267854605192907E+001  1.283802252904896E+001  1.299950497330816E+001 
 1.316301861666716E+001  1.332858900846538E+001  1.349624201941339E+001  1.366600384563526E+001 
 1.383790101276170E+001  1.401196038007482E+001  1.418820914470488E+001  1.436667484587994E+001 
 1.454738536922889E+001  1.473036895113866E+001  1.491565418316623E+001  1.510327001650605E+001 
 1.529324576651379E+001  1.548561111728690E+001  1.568039612630279E+001  1.587763122911544E+001 
 1.607734724411094E+001  1.627957537732294E+001  1.648434722730870E+001  1.669169479008638E+001 
 1.690165046413455E+001  1.711424705545441E+001  1.732951778269589E+001  1.754749628234810E+001 
 1.776821661399506E+001  1.799171326563769E+001  1.821802115908251E+001  1.844717565539828E+001 
 1.867921256044129E+001  1.891416813044999E+001  1.915207907771027E+001  1.939298257629165E+001 
 1.963691626785591E+001  1.988391826753863E+001  2.013402716990478E+001  2.038728205497925E+001 
 2.064372249435306E+001  2.090338855736658E+001  2.116632081737047E+001  2.143256035806527E+001 
 2.170214877992092E+001  2.197512820667680E+001  2.225154129192371E+001  2.253143122576861E+001 
 2.281484174158306E+001  2.310181712283681E+001  2.339240221001701E+001  2.368664240763474E+001 
 2.398458369131951E+001  2.428627261500305E+001  2.459175631819351E+001  2.490108253334100E+001 
 2.521429959329597E+001  2.553145643886128E+001  2.585260262643930E+001  2.617778833577525E+001 
 2.650706437779779E+001  2.684048220255839E+001  2.717809390727054E+001  2.751995224444993E+001 
 2.786611063015732E+001  2.821662315234472E+001  2.857154457930683E+001  2.893093036823872E+001 
 2.929483667390106E+001  2.966332035739453E+001  3.003643899504434E+001  3.041425088739673E+001 
 3.079681506832855E+001  3.118419131427138E+001  3.157644015355181E+001  3.197362287584901E+001 
 3.237580154177140E+001  3.278303899255378E+001  3.319539885987632E+001  3.361294557580731E+001 
 3.403574438287059E+001  3.446386134423995E+001  3.489736335406162E+001  3.533631814790657E+001 
 3.578079431335446E+001  3.623086130071040E+001  3.668658943385684E+001  3.714804992124176E+001 
 3.761531486700514E+001  3.808845728224548E+001  3.856755109642773E+001  3.905267116893509E+001 
 3.954389330076588E+001  4.004129424637755E+001  4.054495172567990E+001  4.105494443617874E+001 
 4.157135206527265E+001  4.209425530270434E+001  4.262373585316847E+001  4.315987644907836E+001 
 4.370276086349286E+001  4.425247392320625E+001  4.480910152200249E+001  4.537273063407633E+001 
 4.594344932762333E+001  4.652134677860044E+001  4.710651328466012E+001  4.769904027925948E+001 
 4.829902034594687E+001  4.890654723282849E+001  4.952171586721638E+001  5.014462237046124E+001 
 5.077536407297150E+001  5.141403952942140E+001  5.206074853415050E+001  5.271559213675647E+001 
 5.337867265788452E+001  5.405009370521511E+001  5.472996018965287E+001  5.541837834171928E+001 
 5.611545572815115E+001  5.682130126870832E+001  5.753602525319256E+001  5.825973935868052E+001 
 5.899255666697368E+001  5.973459168226735E+001  6.048596034904234E+001  6.124678007018152E+001 